<?xml version="1.0"?>
<VTKFile type="UnstructuredGrid"  version="0.1"  >
<UnstructuredGrid>
<Piece  NumberOfPoints="4265" NumberOfCells="6746">
<Points>
<DataArray  type="Float64"  NumberOfComponents="3"  format="ascii">0 0.01 0  10 0.01 0  0 1.030624186909793 0  10 1.030624186909793 0  0.007129524987038337 0.009997491741717768 0  0.01258064459049757 0.00999219056738478 0  0.01872173241756402 0.009982708334120727 0  0.02429919625640796 0.009970876572043954 0  0.03017238705920286 0.009955108531615313 0  0.03612352734296466 0.0099356743715591 0  0.04164979236492252 0.009914517792428084 0  0.04780928449023854 0.009887415768096998 0  0.05327287671237849 0.009860276931383746 0  0.0593436395885565 0.009826715421083503 0  0.06505608699933001 0.009791870631895848 0  0.07077243060783153 0.009753845329312128 0  0.07684085351634186 0.009710036052663748 0  0.08230528612367993 0.009667566921662384 0  0.08846525752759338 0.009616276826848907 0  0.09398926586603956 0.0095672187064786 0  0.09994377871281757 0.009511110804477986 0  0.10581288515308 0.009452550633355501 0  0.1113930001121819 0.009393893683773193 0  0.1175326299024069 0.009326020378011352 0  0.122983161250664 0.009262856809916281 0  0.1290978349347763 0.009188765415777931 0  0.1347300222736412 0.00911751981665075 0  0.1405327472005438 0.009041131768776852 0  0.1465421455697866 0.008958856277281909 0  0.1520341809431761 0.008880870879718691 0  0.1581991754706344 0.00879018143976357 0  0.1636834803794234 0.008706732874359017 0  0.1697073563005918 0.008612096527554045 0  0.1754901396361989 0.008518345936558386 0  0.1811391035120075 0.008424050210098115 0  0.1872444279222087 0.00831915423323064 0  0.1926961446341008 0.008222899998379215 0  0.198841090009393 0.008111516418624823 0  0.2044064770158165 0.008008028244452866 0  0.2102948627703611 0.007895869216798803 0  0.2162299794791283 0.007780085801116003 0  0.2217647046821167 0.007669675498109103 0  0.2279204403470532 0.007544154739747676 0  0.2333791472114919 0.007430485124751003 0  0.2394590817234977 0.0073013084386626 0  0.245152498789355 0.007177928079207972 0  0.2508861115607116 0.007051356111670669 0  0.2569419868439766 0.006915186417023598 0  0.2624099649457279 0.006790084113692359 0  0.2685711825796066 0.006646722567663751 0  0.274083748205357 0.006516341894728842 0  0.2800541704182985 0.00637292855786236 0  0.2859022845836161 0.006230279166502627 0  0.291495955429921 0.006091868246150131 0  0.2976275706217687 0.005937986548763313 0  0.3030757324287757 0.005799406374294222 0  0.3091980118239236 0.005641654227187252 0  0.3148109405089491 0.005495191514879527 0  0.3206341933715942 0.005341435282378838 0  0.3266248575896781 0.005181393525330103 0  0.3321252080346692 0.005032833254881577 0  0.3382880718234609 0.004864596209960478 0  0.3437628463580178 0.004713611578807419 0  0.3498021006600692 0.004545443593512952 0  0.3555594631656461 0.004383601001460968 0  0.3612291099056053 0.004222822711549606 0  0.3673210805066339 0.004048576418709386 0  0.3727746135437823 0.003891330909934085 0  0.3789246700786391 0.003712634483246944 0  0.3844721023230384 0.00355025746928806 0  0.3903845048135511 0.003376011435332509 0  0.3962935688476314 0.003200699755406988 0  0.4018430601204535 0.00303505085978487 0  0.4079921977692303 0.002850427660455144 0  0.4134449905916002 0.002685819499171436 0  0.4195385366679084 0.002500937932218923 0  0.425204482428441 0.002328206591247292 0  0.4309651825948974 0.00215183074136113 0  0.4370014133195289 0.001966263547608745 0  0.4424769325836848 0.00179732019881714 0  0.4486395183564056 0.001606544730410899 0  0.4541373275735043 0.001435838569361521 0  0.4601308451156257 0.001249254088784412 0  0.4659488863550298 0.001067707976620331 0  0.471564807260988 0.0008921302908496037 0  0.4776843759254726 0.0007004920228137959 0  0.4831317484445766 0.0005296836585198918 0  0.4892643513384632 0.0003372062279158936 0  0.4948528283485032 0.000161696161435303 0  0.5007056813361916 -2.216943068070812e-05 0  0.5066699093509902 -0.000209526046556915 0  0.5121845298566023 -0.0003826949545447442 0  0.5183439831944545 -0.0005759742926309219 0  0.5238088617282698 -0.0007472800272428554 0  0.5298681543527348 -0.0009369594486414562 0  0.5355929349139432 -0.001115856450691032 0  0.5412927239341832 -0.001293613669039852 0  0.5473668732672543 -0.001482588207084091 0  0.5528259073001393 -0.001651967505962102 0  0.5589819336317072 -0.001842386787779294 0  0.5645100189486582 -0.002012797049529044 0  0.5704524332663232 -0.002195301346534757 0  0.5763298911552834 -0.002375058665203144 0  0.5819006708717119 -0.002544689651648297 0  0.5880413281562127 -0.002730768313747055 0  0.5934904284812221 -0.002895042191696308 0  0.5995995320960693 -0.003078202338538874 0  0.605236779888003 -0.003246210954182579 0  0.6110299855290301 -0.003417806240976177 0  0.6170432999212266 -0.00359472323302265 0  0.6225307972792151 -0.00375505261922207 0  0.6286944373476531 -0.003933803567825084 0  0.6341794289295242 -0.004091634709336539 0  0.6401977648984302 -0.004263413669385436 0  0.6459846030577213 -0.004427148756161272 0  0.6516277670629291 -0.004585409549508515 0  0.6577342305863492 -0.004755038487876419 0  0.6631843111407589 -0.004904958327357115 0  0.6693271588517591 -0.005072208653571043 0  0.6748942591145469 -0.005222152905474348 0  0.6807781354428797 -0.005378892074409919 0  0.6867158102497221 -0.005535201343768038 0  0.6922478556369909 -0.005679100421160843 0  0.6984036264198542 -0.005837205328254034 0  0.7038624132928571 -0.005975584427524931 0  0.7099402809449575 -0.006127588021236129 0  0.7156361945945205 -0.006268012368771779 0  0.7213667017809595 -0.006407263887957157 0  0.7274241898103784 -0.006552202568912044 0  0.7328913375361901 -0.006680980644346233 0  0.7390522654079078 -0.006823736587757829 0  0.7445663161830813 -0.006949337256267011 0  0.7505345306161221 -0.007082931996795786 0  0.7563856967966242 -0.007211490056377221 0  0.7619775509571868 -0.007332073958440476 0  0.7681106054434813 -0.007461725199742056 0  0.7735594228940573 -0.007574589702563127 0  0.7796809699364847 -0.007698739982391196 0  0.7852974086111042 -0.007810142587226769 0  0.7911178568436495 -0.007923025648348906 0  0.797112403703894 -0.008036515862006795 0  0.8026119630288198 -0.008138129173272899 0  0.8087760180262171 -0.008249131188213875 0  0.814253500572072 -0.008345174877796967 0  0.8202905515677629 -0.008448166667805387 0  0.8260544286221699 -0.008543663134562481 0  0.831720415905675 -0.008634807324656511 0  0.8378167080097026 -0.008729817306667463 0  0.8432709709919499 -0.008812108559864256 0  0.8494209576248264 -0.008901791974276371 0  0.8549745826348545 -0.008979924427376591 0  0.8608814329347291 -0.009060026011188804 0  0.8667998142885592 -0.009137155111096256 0  0.8723460990452367 -0.009206568509458774 0  0.8784989383774584 -0.009280301817794542 0  0.8839552890388401 -0.009342788637451834 0  0.8900456692707091 -0.009409293585850673 0  0.8957233874467343 -0.009468190513990782 0  0.9014754209053449 -0.009524786393944277 0  0.9075213579987256 -0.009580921173179099 0  0.9129954731058688 -0.009628765913494807 0  0.9191593188847452 -0.009679229788646495 0  0.9246655330424429 -0.009721240864333262 0  0.9306503084472221 -0.009763603884533442 0  0.9364847200361547 -0.009801580348484516 0  0.9420914259676206 -0.009834972127394636 0  0.948219177636862 -0.009867976960504428 0  0.9536688877131657 -0.009894257783109666 0  0.9597979104438458 -0.009920349306153329 0  0.9654020314719589 -0.009940987600901847 0  0.9712398170272581 -0.009959209624459757 0  0.9772219132298864 -0.009974407121723252 0  0.9827297975109929 -0.009985285083248089 0  0.9888934840407251 -0.009993913310034224 0  0.9943667421923366 -0.009998434045983932 0  1.000414962337846 -0.009999991502249178 0  1.00616395254491 -0.009998125110441144 0  1.011844857354635 -0.009993077234903055 0  1.017933801412069 -0.009984132829796667 0  1.023390946643176 -0.00997301205183276 0  1.029544679732296 -0.009956955598792184 0  1.035089558108845 -0.009939300412459717 0  1.041010936359372 -0.009917116481575694 0  1.04691554237944 -0.00989157814857561 0  1.052471258615448 -0.009864440751261633 0  1.05862104751389 -0.009830897850136421 0  1.064075481579663 -0.009798076706746352 0  1.070173358231585 -0.009757978136698224 0  1.075837941143087 -0.00971752009646258 0  1.081604377355612 -0.009673173917302162 0  1.087640686528322 -0.009623351755525641 0  1.093119387704205 -0.009575135453199036 0  1.099284093826516 -0.009517491101966447 0  1.104783734376909 -0.009463052176492596 0  1.110779897618174 -0.009400480030121557 0  1.116599992234411 -0.00933655469875222 0  1.122217899723542 -0.009271889359757672 0  1.128339818747432 -0.009198135031144493 0  1.133789446190431 -0.00912961705214143 0  1.139923317158062 -0.009049295973540348 0  1.145515844317945 -0.008973134373133167 0  1.151367773813766 -0.008890475161473248 0  1.157336906671575 -0.008803064948780913 0  1.16285160438384 -0.008719557366803981 0  1.16901331600552 -0.008623157866544266 0  1.174481522907442 -0.00853490108265173 0  1.180539122189597 -0.008434191931863186 0  1.186271617394136 -0.008336073959344166 0  1.191966996821913 -0.008235914041393521 0  1.198046448076202 -0.008126091334838595 0  1.203505695906331 -0.008024945109277802 0  1.209661806077474 -0.007908057515838151 0  1.21519584913737 -0.007800455577732041 0  1.221132109188887 -0.00768241304184519 0  1.227019087412133 -0.007562711583992629 0  1.232585135446325 -0.007447155722966398 0  1.238729389023077 -0.007316953404904543 0  1.244180486899644 -0.007199156086382225 0  1.250286093435722 -0.007064709646262071 0  1.255932842016573 -0.006938052500145445 0  1.261716857103797 -0.006806053534187844 0  1.26773845151126 -0.006666245775332091 0  1.273222687278595 -0.006536836953056475 0  1.279386853652711 -0.00638906998029936 0  1.284876650734994 -0.006255450389977176 0  1.290887326898431 -0.00610702037198264 0  1.296685536664392 -0.00596177282270944 0  1.30231949087952 -0.005818744638503708 0  1.308431215520824
[...]
<PointData  Scalars="Pressure"> 
<DataArray  type="Float64"  Name="Pressure"  format="ascii">-1.1191874729032554e+00  -1.1191874729032554e+00  -8.8165254687314931e-01  -8.8165254687314931e-01  -1.1191206303461163e+00  -1.1190563981060797e+00  -1.1189719175392037e+00  -1.1188194780784393e+00  -1.1186854616819168e+00  -1.1183511541985405e+00  -1.1182110826855900e+00  -1.1178865174053294e+00  -1.1175625360278423e+00  -1.1172220850731904e+00  -1.1167271141955752e+00  -1.1164509999478378e+00  -1.1158062077761428e+00  -1.1154244445908614e+00  -1.1147693385976081e+00  -1.1141813121642121e+00  -1.1135491148071024e+00  -1.1128651632591462e+00  -1.1121684253201856e+00  -1.1113509059480779e+00  -1.1106191182647236e+00  -1.1097608124055047e+00  -1.1089123055869956e+00  -1.1080451494107044e+00  -1.1070320069406183e+00  -1.1062005469729308e+00  -1.1051351285589091e+00  -1.1041526540409536e+00  -1.1030847006449471e+00  -1.1019743995906883e+00  -1.1008787802097908e+00  -1.0996295541369310e+00  -1.0984416670308774e+00  -1.0973296976675340e+00  -1.0959873649711656e+00  -1.0948164907100817e+00  -1.0934942006884802e+00  -1.0922330479283524e+00  -1.0907666424676372e+00  -1.0895310974581922e+00  -1.0881188973265203e+00  -1.0866113270424387e+00  -1.0852391414018452e+00  -1.0835747350098128e+00  -1.0821746687778961e+00  -1.0804821358199013e+00  -1.0789860090881846e+00  -1.0773396261995307e+00  -1.0756452152677696e+00  -1.0740174348177176e+00  -1.0721876499591754e+00  -1.0705096851838451e+00  -1.0687403533100346e+00  -1.0669721707254611e+00  -1.0652733140612698e+00  -1.0633502756646311e+00  -1.0617040970750842e+00  -1.0597192331258563e+00  -1.0579343358408086e+00  -1.0559641639144157e+00  -1.0539751151692121e+00  -1.0520777519964999e+00  -1.0499387331039403e+00  -1.0479933839828097e+00  -1.0458199946105915e+00  -1.0438858612308097e+00  -1.0418561914570175e+00  -1.0398014848078545e+00  -1.0378007767308608e+00  -1.0356643819738163e+00  -1.0336260082208912e+00  -1.0315627200586601e+00  -1.0293762987302471e+00  -1.0272525663946845e+00  -1.0249232091846210e+00  -1.0228135562256988e+00  -1.0204963569835261e+00  -1.0183463884406001e+00  -1.0160597865114807e+00  -1.0138254735472796e+00  -1.0116875281097408e+00  -1.0093262858722725e+00  -1.0072288595442198e+00  -1.0048361388696554e+00  -1.0026551015117000e+00  -1.0003716600034629e+00  -9.9806398391279183e-01  -9.9591671303725637e-01  -9.9352285398530116e-01  -9.9139229592684885e-01  -9.8901279291222999e-01  -9.8677356216256662e-01  -9.8454013499501480e-01  -9.8216188119742687e-01  -9.8003791083976777e-01  -9.7762858949879117e-01  -9.7547808286874604e-01  -9.7317937921824360e-01  -9.7090065488751176e-01  -9.6876454485435903e-01  -9.6636220532171679e-01  -9.6429450920129389e-01  -9.6195891699877334e-01  -9.5984587913463093e-01  -9.5767778689023075e-01  -9.5543967039043043e-01  -9.5338675394924643e-01  -9.5108862741754530e-01  -9.4908055192194496e-01  -9.4685570537009645e-01  -9.4481471062887301e-01  -9.4272407946292303e-01  -9.4057157543416003e-01  -9.3868043712361693e-01  -9.3648843358983458e-01  -9.3461703993014333e-01  -9.3254480877429746e-01  -9.3055110753234083e-01  -9.2867122529571078e-01  -9.2659005785397897e-01  -9.2481176752677230e-01  -9.2284016787399115e-01  -9.2103878216577906e-01  -9.1927647254308908e-01  -9.1736806893368683e-01  -9.1569390473148859e-01  -9.1377735766367674e-01  -9.1210431152329030e-01  -9.1028682948979389e-01  -9.0854238718219060e-01  -9.0692046892907086e-01  -9.0516805515088916e-01  -9.0369373907677764e-01  -9.0207924955113117e-01  -9.0062147569927198e-01  -8.9911918786348721e-01  -8.9767472234369450e-01  -8.9628347545196785e-01  -8.9482919566365926e-01  -8.9356544826020634e-01  -8.9217654326424156e-01  -8.9102529890393412e-01  -8.8973350332279533e-01  -8.8853144053732314e-01  -8.8727992412460877e-01  -8.8604204289495936e-01  -8.8503568513790554e-01  -8.8385855663627266e-01  -8.8284894679021253e-01  -8.8190717887978753e-01  -8.8090482326359465e-01  -8.8004178344786976e-01  -8.7909131319097966e-01  -8.7827771749010175e-01  -8.7747470970690278e-01  -8.7680333283087053e-01  -8.7611419089824605e-01  -8.7547244494206344e-01  -8.7494034544483912e-01  -8.7435418330854309e-01  -8.7393665571115697e-01  -8.7337557633368612e-01  -8.7307991989381561e-01  -8.7264875550908427e-01  -8.7234227701289080e-01  -8.7208850050167697e-01  -8.7180440785639546e-01  -8.7163570452889849e-01  -8.7147740860546097e-01  -8.7141133292197637e-01  -8.7136270248716718e-01  -8.7136519449931149e-01  -8.7137094389062386e-01  -8.7144237398467994e-01  -8.7153559113177814e-01  -8.7165899474318242e-01  -8.7180718452499151e-01  -8.7206631785595290e-01  -8.7234472384822814e-01  -8.7275959875546694e-01  -8.7307795518093179e-01  -8.7356610317167083e-01  -8.7401994572246988e-01  -8.7453241419595051e-01  -8.7514059029190505e-01  -8.7558105707672551e-01  -8.7640760069853574e-01  -8.7692291715328297e-01  -8.7778375771634165e-01  -8.7849417633016913e-01  -8.7930764449824728e-01  -8.8019001440028677e-01  -8.8096260913379099e-01  -8.8195920222876723e-01  -8.8285600665184272e-01  -8.8394252832293674e-01  -8.8497995929797812e-01  -8.8615955059813023e-01  -8.8735284721041530e-01  -8.8849235594970266e-01  -8.8980008579288927e-01  -8.9096742173234267e-01  -8.9232086959212820e-01  -8.9370345932724615e-01  -8.9492089043625489e-01  -8.9644055992618943e-01  -8.9769467382959345e-01  -8.9926772334207539e-01  -9.0068969930465970e-01  -9.0221460406875420e-01  -9.0384275422651605e-01  -9.0541428680167857e-01  -9.0710724434449352e-01  -9.0870349690300900e-01  -9.1045661327619465e-01  -9.1209738023082509e-01  -9.1383398047133335e-01  -9.1563840785063211e-01  -9.1723427185561623e-01  -9.1914676589865651e-01  -9.2092176453267083e-01  -9.2286022230137865e-01  -9.2472022768005169e-01  -9.2646572337499211e-01  -9.2859761367312976e-01  -9.3024083111117162e-01  -9.3240777352097148e-01  -9.3431312945804923e-01  -9.3634783728748672e-01  -9.3851380096843540e-01  -9.4042913227901004e-01  -9.4269197980256259e-01  -9.4469869851718946e-01  -9.4692417096962045e-01  -9.4899789853326288e-01  -9.5116511470190068e-01  -9.5340580788602403e-01  -9.5546668320244488e-01  -9.5779123538205069e-01  -9.5990407280273837e-01  -9.6221291447649471e-01  -9.6452406636829413e-01  -9.6668139429220790e-01  -9.6909612943842027e-01  -9.7117995582144134e-01  -9.7352661276272590e-01  -9.7570627890950512e-01  -9.7793232381677886e-01  -9.8026645945734692e-01  -9.8242989421168592e-01  -9.8487186163497265e-01  -9.8704746622151696e-01  -9.8940953201861126e-01  -9.9168969854899369e-01  -9.9386875773379302e-01  -9.9635396099566964e-01  -9.9844460713162531e-01  -1.0009379102298215e+00  -1.0030812049252560e+00  -1.0053516737670836e+00  -1.0076466602585588e+00  -1.0097210074555023e+00  -1.0119955100662568e+00  -1.0140627410577610e+00  -1.0163338310916157e+00  -1.0184515002219701e+00  -1.0205880934322689e+00  -1.0228690961800870e+00  -1.0248295812956278e+00  -1.0270599001131859e+00  -1.0290979855062303e+00  -1.0312942631213442e+00  -1.0334240740852221e+00  -1.0354652140860925e+00  -1.0377105845151224e+00  -1.0396286230272118e+00  -1.0418612420164055e+00  -1.0437967309116924e+00  -1.0458343680706428e+00  -1.0478866237506386e+00  -1.0497497621352470e+00  -1.0518419072124150e+00  -1.0536873393626582e+00  -1.0556770973939082e+00  -1.0575491971013169e+00  -1.0593830701858182e+00  -1.0613375476168634e+00  -1.0630116975233299e+00  -1.0650586067373420e+00  -1.0667028736129762e+00  -1.0686244965808609e+00  -1.0703664945665894e+00  -1.0721058647634778e+00  -1.0739705680171654e+00  -1.0755526747057325e+00  -1.0774509562927959e+00  -1.0790033839944932e+00  -1.0807615440960261e+00  -1.0822878394933606e+00  -1.0838318047174349e+00  -1.0854831347189351e+00  -1.0867668304566078e+00  -1.0883886393281943e+00  -1.0897196724563356e+00  -1.0910974971724430e+00  -1.0925388325818453e+00  -1.0937475820536269e+00  -1.0952608959692700e+00  -1.0964283097150072e+00  -1.0977907686997375e+00  -1.0989240458590657e+00  -1.1001305752223998e+00  -1.1013063236567944e+00  -1.1023141986995724e+00  -1.1034215647387258e+00  -1.1044039214016532e+00  -1.1053890236731234e+00  -1.1063967210442527e+00  -1.1072543201784337e+00  -1.1081177035378891e+00  -1.1088587066933573e+00  -1.1097231720193719e+00  -1.1103851396646525e+00  -1.1111980256310987e+00  -1.1119733425173990e+00  -1.1126452651989751e+00  -1.1133873273412478e+00  -1.1139056570762029e+00  -1.1146008391986610e+00  -1.1151630061324256e+00  -1.1156745246691271e+00  -1.1162248587583872e+00  -1.1165594819575921e+00  -1.1170762833726970e+00  -1.1173774616848584e+00  -1.1176661692147178e+00  -1.1179655941383724e+00  -1.1181986476214749e+00  -1.1184547894921026e+00  -1.1186397868957765e+00  -1.1188026981219701e+00  -1.1188176574015198e+00  -1.1189399643134548e+00  -1.1189700595923540e+00  -1.1190275312093185e+00  -1.1190026838491345e+00  -1.1188653850016257e+00  -1.1187524065319543e+00  -1.1186087997181020e+00  -1.1183357458261809e+00  -1.1182076624735779e+00  -1.1179097638011548e+00  -1.1176067881135261e+00  -1.1172742516892897e+00  -1.1169623223852347e+00  -1.1165463622395220e+00  -1.1161482430125242e+00  -1.1156696937097825e+00  -1.1149980686476251e+00  -1.1145116211018076e+00  -1.1137556514459361e+00  -1.1131202666186109e+00  -1.1122213104438272e+00  -1.1114224252010085e+00  -1.1105044011726732e+00  -1.1096507898260324e+00  -1.1088425864305627e+00  -1.1079612346150260e+00  -1.1071413740246336e+00  -1.1062994664356416e+00  -1.1054203393697239e+00  -1.1044440024198545e+00  -1.1034561880595652e+00  -1.1024506207205633e+00  -1.1013426202382701e+00  -1.1003057536747982e+00  -1.0991273232927778e+00  -1.0979792092948968e+00  -1.0968038605017352e+00  -1.0954231272963431e+00  -1.0942668453058984e+00  -1.0928462034428779e+00  -1.0914600341755671e+00  -1.0901425420403796e+00  -1.0886382787625397e+00  -1.0872303150613374e+00  -1.0856480354077063e+00  -1.0841597884806224e+00  -1.0826005499331732e+00  -1.0810695285206593e+00  -1.0795303937666552e+00  -1.0778606191560325e+00  -1.0763270031178165e+00  -1.0745150798112986e+00  -1.0729002618374348e+00  -1.0711099629063394e+00  -1.0693393227027634e+00  -1.0676473960910877e+00  -1.0656858240874463e+00  -1.0640290234825402e+00  -1.0620189207871373e+00  -1.0602194555225524e+00  -1.0582810050647433e+00  -1.0562831304784017e+00  -1.0543655198001318e+00  -1.0523229294783123e+00  -1.0504651147321211e+00  -1.0484798622687601e+00  -1.0465847442228331e+00  -1.0446132030175970e+00  -1.0425302344086806e+00  -1.0406032892785102e+00  -1.0384156489593743e+00  -1.0364683424471655e+00  -1.0342983975244697e+00  -1.0321992430403777e+00  -1.0301578755159173e+00  -1.0278505884440678e+00  -1.0258047291078558e+00  -1.0234985472478637e+00  -1.0213595132399778e+00  -1.0191248673870081e+00  -1.0168489320220599e+00  -1.0147261981496500e+00  -1.0123460462380132e+00  -1.0102180206592035e+00  -1.0078380080597300e+00  -1.0056280127403392e+00  -1.0033550279219523e+00  -1.0010458196376644e+00  -9.9892806239099430e-01  -9.9650718964549323e-01  -9.9433349987125663e-01  -9.9197317072739544e-01  -9.8964489758231278e-01  -9.8746226272447279e-01  -9.8505004198199564e-01  -9.8292150264916667e-01  -9.8056238723482037e-01  -9.7842552147215212e-01  -9.7617202517949830e-01  -9.7384761850439638e-01  -9.7171690864528537e-01  -9.6932097256556071e-01  -9.6718458176050703e-01  -9.6480898472614141e-01  -9.6264968831337228e-01  -9.6042165989018058e-01  -9.5820860292873467e-01  -9.5617507398420809e-01  -9.5385650791908405e-01  -9.5183441463921614e-01  -9.4960715657325567e-01  -9.4741882324847992e-01  -9.4540568098587219e-01  -9.4314880522266198e-01  -9.4120802930295366e-01  -9.3906144641520106e-01  -9.3706510000903542e-01  -9.3501487691906626e-01  -9.3297887720323536e-01  -9.3108327927658130e-01  -9.2896807543630322e-01  -9.2720086719756734e-01  -9.2513414488228096e-01  -9.2323255419261963e-01  -9.2139497933054493e-01  -9.1940214936017972e-01  -9.1770239193478809e-01  -9.1581644310551980e-01  -9.1411296492255989e-01  -9.1232836957795149e-01  -9.1063491769649141e-01  -9.0900127193586577e-01  -9.0723836290338844e-01  -9.0576750447657139e-01  -9.0404959341907509e-01  -9.0258294133434436e-01  -9.0101345601072336e-01  -8.9951272945853411e-01  -8.9810087671496563e-01  -8.9658827880347824e-01  -8.9526795954810567e-01  -8.9386666629298617e-01  -8.9250785537384447e-01  -8.9126543921163859e-01  -8.8988344944434716e-01  -8.8872498425204083e-01  -8.8740590454696189e-01  -8.8633614202651478e-01  -8.8514426359941922e-01  -8.8404677963429990e-01  -8.8312396586385999e-01  -8.8210714361319087e-01  -8.8126622347171868e-01  -8.8034539325784689e-01  -8.7959429229799191e-01  -8.7868139936133705e-01  -8.7800335109146410e-01  -8.7720801734897780e-01  -8.7651164099355261e-01  -8.7592092188307058e-01  -8.7532029949346180e-01  -8.7474992089899595e-01  -8.7423304931377044e-01  -8.7367209118150091e-01  -8.7322830391265194e-01  -8.7276486593086444e-01  -8.7240445349660090e-01  -8.7206326492081243e-01  -8.7188811261259369e-01  -8.7161291665124274e-01  -8.7144951730195985e-01  -8.7142395700426156e-01  -8.7124151445864428e-01  -8.7120934756775481e-01  -8.7116500369581162e-01  -8.7119470667565102e-01  -8.7135991404262225e-01  -8.7144032115663295e-01  -8.7164542379266963e-01  -8.7180541949670198e-01  -8.7217426584320479e-01  -8.7234954512621576e-01  -8.7279506969048826e-01  -8.7324619131174175e-01  -8.7359801493421674e-01  -8.7412260429824629e-01  -8.7463598878579774e-01  -8.7525672724119152e-01  -8.7593879869061153e-01  -8.7660777946013924e-01  -8.7736516811853171e-01  -8.7813096276369396e-01  -8.7908819242003833e-01  -8.7985357801544495e-01  -8.8085574117771137e-01  -8.8175634671379843e-01  -8.8279995073257977e-01  -8.8376123032702281e-01  -8.8477994794053050e-01  -8.8598936017863328e-01  -8.8692864203859734e-01  -8.8811713304136375e-01  -8.8926692210505531e-01  -8.9053038903882842e-01  -8.9193916960734809e-01  -8.9312543695124136e-01  -8.9457851357540275e-01  -8.9585011325446939e-01  -8.9731762289034378e-01  -8.9870497852358411e-01  -9.0017079757814866e-01  -9.0173339165399247e-01  -9.0319745445079047e-01  -9.0491214313812141e-01  -9.0640586731995187e-01  -9.0816743803161437e-01  -9.0986091629517452e-01  -9.1155222575863959e-01  -9.1346118244424968e-01  -9.1515360820904124e-01  -9.1713459258159502e-01  -9.1888989025703260e-01  -9.2075184652072251e-01  -9.2270099528674854e-01  -9.2441728107481880e-01  -9.2639898820561284e-01  -9.2820382375419119e-01  -9.3022772284440369e-01  -9.3223010581995558e-01  -9.3410937533129634e-01  -9.3620674869576137e-01  -9.3808713925242382e-01  -9.4026505193267351e-01  -9.4222519892775192e-01  -9.4440072817691589e-01  -9.4652421371775197e-01  -9.4858102261240362e-01  -9.5076257913734108e-01  -9.5267348404504704e-01  -9.5492659208452124e-01  -9.5697716191316740e-01  -9.5909952390705322e-01  -9.6138095110311816e-01  -9.6348632290895564e-01  -9.6586238802037083e-01  -9.6800255311935779e-01  -9.7033962069271207e-01  -9.7259009298414323e-01  -9.7484794039222722e-01  -9.7724258495047434e-01  -9.7938672622204681e-01  -9.8184339794060993e-01  -9.8404333304672198e-01  -9.8637355545109995e-01  -9.8873340775119289e-01  -9.9089668006229326e-01  -9.9334593036117513e-01  -9.9547287409291474e-01  -9.9784378384636452e-01  -1.0000533486160357e+00  -1.0023214810260785e+00  -1.0046705602055213e+00  -1.0068063052096237e+00  -1.0092111182815418e+00  -1.0113481941026343e+00  -1.0136706045074653e+00  -1.0158640964966350e+00  -1.0180254065661709e+00  -1.0202658707725254e+00  -1.0223656061530111e+00  -1.0246123725186043e+00  -1.0266555522642258e+00  -1.0288643545100769e+00  -1.0309899414965344e+00  -1.0330099016343439e+00  -1.0352212727132553e+00  -1.0371502360983258e+00  -1.0393112534296143e+00  -1.0412715840717248e+00  -1.0433444421575104e+00  -1.0454410394447986e+00  -1.0474069252652805e+00  -1.0495683930919517e+00  -1.0515080641489973e+00  -1.0535724284626808e+00  -1.0554817334688871e+00  -1.0573192669522664e+00  -1.0593339347303623e+00  -1.0610556566856646e+00  -1.0629801346013259e+00  -1.0647092313221207e+00  -1.0665344186262185e+00  -1.0683434604576771e+00  -1.0700005581516159e+00  -1.0717531576677763e+00  -1.0733027829202562e+00  -1.0749524468985929e+00  -1.0765277213744775e+00  -1.0780345258574417e+00  -1.0797152533612624e+00  -1.0810981467964458e+00  -1.0829741934501711e+00  -1.0843617539754931e+00  -1.0860873423757531e+00  -1.0876868930791543e+00  -1.0892072491826075e+00  -1.0908051731336197e+00  -1.0920249307635987e+00  -1.0936619906686194e+00  -1.0947589758395719e+00  -1.0961464672637717e+00  -1.0974347493785210e+00  -1.0987567021042519e+00  -1.1000735781897646e+00  -1.1012096851747892e+00  -1.1024110797136597e+00  -1.1034991571317276e+00  -1.1044819734593156e+00  -1.1054980054285315e+00  -1.1063975763569009e+00  -1.1073919533783985e+00  -1.1081763449501849e+00  -1.1091636763862278e+00  -1.1100217169275310e+00  -1.1107820712370775e+00  -1.1115761934055912e+00  -1.1121293939741392e+00  -1.1128746025265488e+00  -1.1134513086228988e+00  -1.1140334065636150e+00  -1.1146128471653765e+00  -1.1150874232158310e+00  -1.1155724883856994e+00  -1.1159975150706163e+00  -1.1164521597827428e+00  -1.1168915919354632e+00  -1.1172957057042319e+00  -1.1177484734061471e+00  -1.1179857259322532e+00  -1.1184158557525188e+00  -1.1185331066758697e+00  -1.1189019904728239e+00  -1.1189706903024736e+00  -1.1191535544803426e+00  -1.1192009319056948e+00  -1.1191945598970043e+00  -1.1191706812541666e+00  -1.1190609108237155e+00  -1.1189035751962590e+00  -1.1186938082222775e+00  -1.1184553784191305e+00  -1.1181798897693473e+00  -1.1178852959124574e+00  -1.1176056859250523e+00  -1.1171785478171692e+00  -1.1169037708986509e+00  -1.1164191884197925e+00  -1.1160819608814578e+00  -1.1157036249439758e+00  -1.1152679992995824e+00  -1.1149193710951621e+00  -1.1143865428644948e+00  -1.1138096314499795e+00  -1.1132153313614574e+00  -1.1125815836305477e+00  -1.1119744713295998e+00  -1.1112514321918938e+00  -1.1105132986068302e+00  -1.1095787561101200e+00  -1.1087915463741975e+00  -1.1077797288597571e+00  -1.1069279833423740e+00  -1.1059859030071466e+00  -1.1049341475227270e+00  -1.1040107652316327e+00  -1.1028194896629810e+00  -1.1016381920372518e+00  -1.1004915682807381e+00  -1.0992375750157513e+00  -1.0980785982572396e+00  -1.0967910164440164e+00  -1.0955071664921516e+00  -1.0942641675042897e+00  -1.0929464161233489e+00  -1.0916292772237259e+00  -1.0902871718899536e+00  -1.0890082708384849e+00  -1.0875718586679151e+00  -1.0862162865915019e+00  -1.0846829623537679e+00  -1.0831669687945560e+00  -1.0816587654919283e+00  -1.0799639437156712e+00  -1.0785484459879904e+00  -1.0767661956465517e+00  -1.0750738695740407e+00  -1.0734003106733325e+00  -1.0715692290508607e+00  -1.0698869919740719e+00  -1.0679609999755968e+00  -1.0661817654391748e+00  -1.0642850415975484e+00  -1.0624423288240106e+00  -1.0606161654821631e+00  -1.0586281284564103e+00  -1.0568263963700280e+00  -1.0547854392517539e+00  -1.0529176634067048e+00  -1.0509044511817034e+00  -1.0488806089426361e+00  -1.0470132691458938e+00  -1.0447853122298729e+00  -1.0429679201867823e+00  -1.0407519954504483e+00  -1.0387375194275068e+00  -1.0366545888232113e+00  -1.0345527775107535e+00  -1.0325548643971847e+00  -1.0302931422986268e+00  -1.0282346076738693e+00  -1.0259936942030792e+00  -1.0238648666947112e+00  -1.0217323750517584e+00  -1.0194421223749806e+00  -1.0173751419953148e+00  -1.0150389806671913e+00  -1.0128662206675152e+00  -1.0105174632206599e+00  -1.0082493802426424e+00  -1.0060958543784946e+00  -1.0037092027769594e+00  -1.0016686703915370e+00  -9.9934276184549831e-01  -9.9718492447241214e-01  -9.9492779947088505e-01  -9.9259412392883062e-01  -9.9047152472582711e-01  -9.8811800550395634e-01  -9.8597294734649810e-01  -9.8359971013375269e-01  -9.8134240244468729e-01  -9.7908776121263252e-01  -9.7670293138646569e-01  -9.7466169040697070e-01  -9.7226674133260893e-01  -9.7016044573465254e-01  -9.6786439065129215e-01  -9.6559240501088461e-01  -9.6348062134736590e-01  -9.6114188025632008e-01  -9.5906