<?xml version="1.0"?>
<VTKFile type="UnstructuredGrid"  version="0.1"  >
<UnstructuredGrid>
<Piece  NumberOfPoints="4276" NumberOfCells="6769">
<Points>
<DataArray  type="Float64"  NumberOfComponents="3"  format="ascii">0 0.01 0  10 0.01 0  0 1.01 0  10 1.01 0  0.007129524987038337 0.009997491741717768 0  0.01258064459049757 0.00999219056738478 0  0.01872173241756402 0.009982708334120727 0  0.02429919625640796 0.009970876572043954 0  0.03017238705920286 0.009955108531615313 0  0.03612352734296466 0.0099356743715591 0  0.04164979236492252 0.009914517792428084 0  0.04780928449023854 0.009887415768096998 0  0.05327287671237849 0.009860276931383746 0  0.0593436395885565 0.009826715421083503 0  0.06505608699933001 0.009791870631895848 0  0.07077243060783153 0.009753845329312128 0  0.07684085351634186 0.009710036052663748 0  0.08230528612367993 0.009667566921662384 0  0.08846525752759338 0.009616276826848907 0  0.09398926586603956 0.0095672187064786 0  0.09994377871281757 0.009511110804477986 0  0.10581288515308 0.009452550633355501 0  0.1113930001121819 0.009393893683773193 0  0.1175326299024069 0.009326020378011352 0  0.122983161250664 0.009262856809916281 0  0.1290978349347763 0.009188765415777931 0  0.1347300222736412 0.00911751981665075 0  0.1405327472005438 0.009041131768776852 0  0.1465421455697866 0.008958856277281909 0  0.1520341809431761 0.008880870879718691 0  0.1581991754706344 0.00879018143976357 0  0.1636834803794234 0.008706732874359017 0  0.1697073563005918 0.008612096527554045 0  0.1754901396361989 0.008518345936558386 0  0.1811391035120075 0.008424050210098115 0  0.1872444279222087 0.00831915423323064 0  0.1926961446341008 0.008222899998379215 0  0.198841090009393 0.008111516418624823 0  0.2044064770158165 0.008008028244452866 0  0.2102948627703611 0.007895869216798803 0  0.2162299794791283 0.007780085801116003 0  0.2217647046821167 0.007669675498109103 0  0.2279204403470532 0.007544154739747676 0  0.2333791472114919 0.007430485124751003 0  0.2394590817234977 0.0073013084386626 0  0.245152498789355 0.007177928079207972 0  0.2508861115607116 0.007051356111670669 0  0.2569419868439766 0.006915186417023598 0  0.2624099649457279 0.006790084113692359 0  0.2685711825796066 0.006646722567663751 0  0.274083748205357 0.006516341894728842 0  0.2800541704182985 0.00637292855786236 0  0.2859022845836161 0.006230279166502627 0  0.291495955429921 0.006091868246150131 0  0.2976275706217687 0.005937986548763313 0  0.3030757324287757 0.005799406374294222 0  0.3091980118239236 0.005641654227187252 0  0.3148109405089491 0.005495191514879527 0  0.3206341933715942 0.005341435282378838 0  0.3266248575896781 0.005181393525330103 0  0.3321252080346692 0.005032833254881577 0  0.3382880718234609 0.004864596209960478 0  0.3437628463580178 0.004713611578807419 0  0.3498021006600692 0.004545443593512952 0  0.3555594631656461 0.004383601001460968 0  0.3612291099056053 0.004222822711549606 0  0.3673210805066339 0.004048576418709386 0  0.3727746135437823 0.003891330909934085 0  0.3789246700786391 0.003712634483246944 0  0.3844721023230384 0.00355025746928806 0  0.3903845048135511 0.003376011435332509 0  0.3962935688476314 0.003200699755406988 0  0.4018430601204535 0.00303505085978487 0  0.4079921977692303 0.002850427660455144 0  0.4134449905916002 0.002685819499171436 0  0.4195385366679084 0.002500937932218923 0  0.425204482428441 0.002328206591247292 0  0.4309651825948974 0.00215183074136113 0  0.4370014133195289 0.001966263547608745 0  0.4424769325836848 0.00179732019881714 0  0.4486395183564056 0.001606544730410899 0  0.4541373275735043 0.001435838569361521 0  0.4601308451156257 0.001249254088784412 0  0.4659488863550298 0.001067707976620331 0  0.471564807260988 0.0008921302908496037 0  0.4776843759254726 0.0007004920228137959 0  0.4831317484445766 0.0005296836585198918 0  0.4892643513384632 0.0003372062279158936 0  0.4948528283485032 0.000161696161435303 0  0.5007056813361916 -2.216943068070812e-05 0  0.5066699093509902 -0.000209526046556915 0  0.5121845298566023 -0.0003826949545447442 0  0.5183439831944545 -0.0005759742926309219 0  0.5238088617282698 -0.0007472800272428554 0  0.5298681543527348 -0.0009369594486414562 0  0.5355929349139432 -0.001115856450691032 0  0.5412927239341832 -0.001293613669039852 0  0.5473668732672543 -0.001482588207084091 0  0.5528259073001393 -0.001651967505962102 0  0.5589819336317072 -0.001842386787779294 0  0.5645100189486582 -0.002012797049529044 0  0.5704524332663232 -0.002195301346534757 0  0.5763298911552834 -0.002375058665203144 0  0.5819006708717119 -0.002544689651648297 0  0.5880413281562127 -0.002730768313747055 0  0.5934904284812221 -0.002895042191696308 0  0.5995995320960693 -0.003078202338538874 0  0.605236779888003 -0.003246210954182579 0  0.6110299855290301 -0.003417806240976177 0  0.6170432999212266 -0.00359472323302265 0  0.6225307972792151 -0.00375505261922207 0  0.6286944373476531 -0.003933803567825084 0  0.6341794289295242 -0.004091634709336539 0  0.6401977648984302 -0.004263413669385436 0  0.6459846030577213 -0.004427148756161272 0  0.6516277670629291 -0.004585409549508515 0  0.6577342305863492 -0.004755038487876419 0  0.6631843111407589 -0.004904958327357115 0  0.6693271588517591 -0.005072208653571043 0  0.6748942591145469 -0.005222152905474348 0  0.6807781354428797 -0.005378892074409919 0  0.6867158102497221 -0.005535201343768038 0  0.6922478556369909 -0.005679100421160843 0  0.6984036264198542 -0.005837205328254034 0  0.7038624132928571 -0.005975584427524931 0  0.7099402809449575 -0.006127588021236129 0  0.7156361945945205 -0.006268012368771779 0  0.7213667017809595 -0.006407263887957157 0  0.7274241898103784 -0.006552202568912044 0  0.7328913375361901 -0.006680980644346233 0  0.7390522654079078 -0.006823736587757829 0  0.7445663161830813 -0.006949337256267011 0  0.7505345306161221 -0.007082931996795786 0  0.7563856967966242 -0.007211490056377221 0  0.7619775509571868 -0.007332073958440476 0  0.7681106054434813 -0.007461725199742056 0  0.7735594228940573 -0.007574589702563127 0  0.7796809699364847 -0.007698739982391196 0  0.7852974086111042 -0.007810142587226769 0  0.7911178568436495 -0.007923025648348906 0  0.797112403703894 -0.008036515862006795 0  0.8026119630288198 -0.008138129173272899 0  0.8087760180262171 -0.008249131188213875 0  0.814253500572072 -0.008345174877796967 0  0.8202905515677629 -0.008448166667805387 0  0.8260544286221699 -0.008543663134562481 0  0.831720415905675 -0.008634807324656511 0  0.8378167080097026 -0.008729817306667463 0  0.8432709709919499 -0.008812108559864256 0  0.8494209576248264 -0.008901791974276371 0  0.8549745826348545 -0.008979924427376591 0  0.8608814329347291 -0.009060026011188804 0  0.8667998142885592 -0.009137155111096256 0  0.8723460990452367 -0.009206568509458774 0  0.8784989383774584 -0.009280301817794542 0  0.8839552890388401 -0.009342788637451834 0  0.8900456692707091 -0.009409293585850673 0  0.8957233874467343 -0.009468190513990782 0  0.9014754209053449 -0.009524786393944277 0  0.9075213579987256 -0.009580921173179099 0  0.9129954731058688 -0.009628765913494807 0  0.9191593188847452 -0.009679229788646495 0  0.9246655330424429 -0.009721240864333262 0  0.9306503084472221 -0.009763603884533442 0  0.9364847200361547 -0.009801580348484516 0  0.9420914259676206 -0.009834972127394636 0  0.948219177636862 -0.009867976960504428 0  0.9536688877131657 -0.009894257783109666 0  0.9597979104438458 -0.009920349306153329 0  0.9654020314719589 -0.009940987600901847 0  0.9712398170272581 -0.009959209624459757 0  0.9772219132298864 -0.009974407121723252 0  0.9827297975109929 -0.009985285083248089 0  0.9888934840407251 -0.009993913310034224 0  0.9943667421923366 -0.009998434045983932 0  1.000414962337846 -0.009999991502249178 0  1.00616395254491 -0.009998125110441144 0  1.011844857354635 -0.009993077234903055 0  1.017933801412069 -0.009984132829796667 0  1.023390946643176 -0.00997301205183276 0  1.029544679732296 -0.009956955598792184 0  1.035089558108845 -0.009939300412459717 0  1.041010936359372 -0.009917116481575694 0  1.04691554237944 -0.00989157814857561 0  1.052471258615448 -0.009864440751261633 0  1.05862104751389 -0.009830897850136421 0  1.064075481579663 -0.009798076706746352 0  1.070173358231585 -0.009757978136698224 0  1.075837941143087 -0.00971752009646258 0  1.081604377355612 -0.009673173917302162 0  1.087640686528322 -0.009623351755525641 0  1.093119387704205 -0.009575135453199036 0  1.099284093826516 -0.009517491101966447 0  1.104783734376909 -0.009463052176492596 0  1.110779897618174 -0.009400480030121557 0  1.116599992234411 -0.00933655469875222 0  1.122217899723542 -0.009271889359757672 0  1.128339818747432 -0.009198135031144493 0  1.133789446190431 -0.00912961705214143 0  1.139923317158062 -0.009049295973540348 0  1.145515844317945 -0.008973134373133167 0  1.151367773813766 -0.008890475161473248 0  1.157336906671575 -0.008803064948780913 0  1.16285160438384 -0.008719557366803981 0  1.16901331600552 -0.008623157866544266 0  1.174481522907442 -0.00853490108265173 0  1.180539122189597 -0.008434191931863186 0  1.186271617394136 -0.008336073959344166 0  1.191966996821913 -0.008235914041393521 0  1.198046448076202 -0.008126091334838595 0  1.203505695906331 -0.008024945109277802 0  1.209661806077474 -0.007908057515838151 0  1.21519584913737 -0.007800455577732041 0  1.221132109188887 -0.00768241304184519 0  1.227019087412133 -0.007562711583992629 0  1.232585135446325 -0.007447155722966398 0  1.238729389023077 -0.007316953404904543 0  1.244180486899644 -0.007199156086382225 0  1.250286093435722 -0.007064709646262071 0  1.255932842016573 -0.006938052500145445 0  1.261716857103797 -0.006806053534187844 0  1.26773845151126 -0.006666245775332091 0  1.273222687278595 -0.006536836953056475 0  1.279386853652711 -0.00638906998029936 0  1.284876650734994 -0.006255450389977176 0  1.290887326898431 -0.00610702037198264 0  1.296685536664392 -0.00596177282270944 0  1.30231949087952 -0.005818744638503708 0  1.308431215520824 -0.005661527839665159 0  
[...]
<PointData  Scalars="Pressure"> 
<DataArray  type="Float64"  Name="Pressure"  format="ascii">-1.1356881416764515e+00  -1.1356881416764515e+00  -9.3872754933174762e-01  -9.3872754933174762e-01  -1.1355304582301387e+00  -1.1355061699770863e+00  -1.1355102826059302e+00  -1.1352286150675899e+00  -1.1350955544207462e+00  -1.1347934703498104e+00  -1.1345760819589406e+00  -1.1341895317009918e+00  -1.1338203981502986e+00  -1.1333618938333012e+00  -1.1328690026223105e+00  -1.1323620137467592e+00  -1.1318185816593553e+00  -1.1310805476234926e+00  -1.1305864374316508e+00  -1.1296983185329970e+00  -1.1291412634559788e+00  -1.1282481702469809e+00  -1.1276344114404950e+00  -1.1267544945354622e+00  -1.1257955502718324e+00  -1.1249963375382130e+00  -1.1239479002973618e+00  -1.1228253223808178e+00  -1.1217260384420242e+00  -1.1207614706349687e+00  -1.1195710902342435e+00  -1.1183634936945621e+00  -1.1171988670749147e+00  -1.1159402552377033e+00  -1.1148005251095088e+00  -1.1133269417329821e+00  -1.1121858773619795e+00  -1.1106864700612717e+00  -1.1092505235588670e+00  -1.1077867262010876e+00  -1.1062442789176121e+00  -1.1048141677006793e+00  -1.1032134730589407e+00  -1.1017191477656296e+00  -1.1000231125992641e+00  -1.0983904033982650e+00  -1.0967292277126719e+00  -1.0949186788682093e+00  -1.0932602386152905e+00  -1.0913614860317848e+00  -1.0896308897273119e+00  -1.0877162516152767e+00  -1.0857214423115100e+00  -1.0839548411022082e+00  -1.0818708339756700e+00  -1.0800088443614606e+00  -1.0778840597197885e+00  -1.0758934419129269e+00  -1.0737999941398610e+00  -1.0716131457872329e+00  -1.0696101150263011e+00  -1.0673284306764554e+00  -1.0652651909374551e+00  -1.0630133712948486e+00  -1.0607796848223390e+00  -1.0586435825325566e+00  -1.0562555203568837e+00  -1.0540810211146057e+00  -1.0516171851155889e+00  -1.0493649978000394e+00  -1.0469561141866506e+00  -1.0445280806624755e+00  -1.0422123123584746e+00  -1.0396391694055180e+00  -1.0373815821868435e+00  -1.0349225927902739e+00  -1.0325592316522916e+00  -1.0301665807019265e+00  -1.0276088949307209e+00  -1.0253138338147192e+00  -1.0227169608229891e+00  -1.0203185083451751e+00  -1.0177119850014027e+00  -1.0151756601706026e+00  -1.0127725135801791e+00  -1.0100584362828662e+00  -1.0076937875082017e+00  -1.0050020575199736e+00  -1.0025458358889836e+00  -9.9996607993159581e-01  -9.9735852601882014e-01  -9.9492680058104188e-01  -9.9218416294666922e-01  -9.8975269176773950e-01  -9.8710104211521632e-01  -9.8457426408496340e-01  -9.8206120359903037e-01  -9.7942465985977556e-01  -9.7701433937882753e-01  -9.7430311723776886e-01  -9.7187485205232915e-01  -9.6924867822630500e-01  -9.6675341042479723e-01  -9.6431461234640603e-01  -9.6161336278161080e-01  -9.5932142149905864e-01  -9.5660553938676551e-01  -9.5423645042511085e-01  -9.5176316905670411e-01  -9.4923285801802681e-01  -9.4694788139507780e-01  -9.4438905653396854e-01  -9.4211881944115328e-01  -9.3956911163410206e-01  -9.3721702190582667e-01  -9.3486079636155406e-01  -9.3240279903685186e-01  -9.3023282957581366e-01  -9.2777786900752190e-01  -9.2561809013099783e-01  -9.2327683098684588e-01  -9.2094550418543575e-01  -9.1879274380545883e-01  -9.1640500658905799e-01  -9.1436095708118215e-01  -9.1211896433591311e-01  -9.1013145838960741e-01  -9.0811688725258466e-01  -9.0598582626527457e-01  -9.0420143736817271e-01  -9.0204474826643377e-01  -9.0020123748883718e-01  -8.9818796813566149e-01  -8.9627801934607509e-01  -8.9449743780428914e-01  -8.9256602014887365e-01  -8.9091991329331244e-01  -8.8909346339938367e-01  -8.8751873802384307e-01  -8.8579688118694211e-01  -8.8415803005757310e-01  -8.8267204353537176e-01  -8.8106730182508097e-01  -8.7968836200353273e-01  -8.7816055524520520e-01  -8.7677907339323724e-01  -8.7537813668887832e-01  -8.7404680933911705e-01  -8.7276068075649271e-01  -8.7139169143932316e-01  -8.7029107227172031e-01  -8.6898420838104040e-01  -8.6780220540538022e-01  -8.6669652823937937e-01  -8.6552319438383452e-01  -8.6464577055408609e-01  -8.6353359826253284e-01  -8.6265132537142786e-01  -8.6175644995566270e-01  -8.6085987042158973e-01  -8.6025547301318384e-01  -8.5940186477499270e-01  -8.5878687684933575e-01  -8.5809468686151102e-01  -8.5749478977749116e-01  -8.5699461486255812e-01  -8.5657789280274366e-01  -8.5616506315328200e-01  -8.5576627459928711e-01  -8.5550017159649250e-01  -8.5525800281309450e-01  -8.5507500904041034e-01  -8.5498077952408058e-01  -8.5495227801846274e-01  -8.5496502348484527e-01  -8.5501071255468075e-01  -8.5511850151744351e-01  -8.5521279266484773e-01  -8.5547406413364535e-01  -8.5559309276956108e-01  -8.5581979908482597e-01  -8.5604328690094766e-01  -8.5632011219985016e-01  -8.5665418015534178e-01  -8.5701857082817934e-01  -8.5753678896468044e-01  -8.5801773742192478e-01  -8.5860301066338707e-01  -8.5922990102997443e-01  -8.5985392550402751e-01  -8.6070747992530627e-01  -8.6135452144676716e-01  -8.6220176584720798e-01  -8.6300995085895937e-01  -8.6390498882275668e-01  -8.6481623771871508e-01  -8.6573400739350104e-01  -8.6682163599889595e-01  -8.6782904774153935e-01  -8.6887137957176697e-01  -8.6998639048628668e-01  -8.7111663408331508e-01  -8.7239380154595791e-01  -8.7364951067806962e-01  -8.7505930177081437e-01  -8.7640060409561138e-01  -8.7785491572774266e-01  -8.7930655295966631e-01  -8.8081520387353895e-01  -8.8249486852044123e-01  -8.8414032462117653e-01  -8.8587009179551934e-01  -8.8760752512811913e-01  -8.8925774177054240e-01  -8.9116100786875718e-01  -8.9281126970981939e-01  -8.9472395772541824e-01  -8.9646213811855646e-01  -8.9845878227400955e-01  -9.0040044356269189e-01  -9.0240275259278513e-01  -9.0451649773267562e-01  -9.0647650508975852e-01  -9.0863133340435920e-01  -9.1067498991978169e-01  -9.1281048766979556e-01  -9.1505689117671818e-01  -9.1707978233532894e-01  -9.1942557550919757e-01  -9.2148243057526225e-01  -9.2378442230441205e-01  -9.2600010753170048e-01  -9.2822414120017782e-01  -9.3061039955382785e-01  -9.3277566696071212e-01  -9.3516987712499999e-01  -9.3739161523020731e-01  -9.3983047806455500e-01  -9.4215020309317976e-01  -9.4448720478293491e-01  -9.4702212942012021e-01  -9.4925862899881963e-01  -9.5188120674569809e-01  -9.5422274599985357e-01  -9.5676758829533015e-01  -9.5927533604187032e-01  -9.6168708971668282e-01  -9.6439619283129607e-01  -9.6687499655229636e-01  -9.6956059572291531e-01  -9.7204403917594762e-01  -9.7462164276114327e-01  -9.7732117405821417e-01  -9.7974229666784507e-01  -9.8248949507082273e-01  -9.8494367087793788e-01  -9.8759169299029281e-01  -9.9017991532041572e-01  -9.9267443730495775e-01  -9.9532629781910076e-01  -9.9762331626404233e-01  -1.0002292786249389e+00  -1.0026424381869639e+00  -1.0052009215508124e+00  -1.0077292330656868e+00  -1.0101552094422961e+00  -1.0128922574575718e+00  -1.0152624761382221e+00  -1.0178899042732372e+00  -1.0203693419135125e+00  -1.0228834717481834e+00  -1.0255063434250484e+00  -1.0277603470688292e+00  -1.0304742930812356e+00  -1.0328125356279625e+00  -1.0353589648792063e+00  -1.0377543085019514e+00  -1.0401507266163701e+00  -1.0427215226426636e+00  -1.0449138107003804e+00  -1.0474625064174254e+00  -1.0497168403010726e+00  -1.0520868047949508e+00  -1.0544564376076226e+00  -1.0566415884652787e+00  -1.0590453243370885e+00  -1.0611664248450454e+00  -1.0634817047934249e+00  -1.0656115189603492e+00  -1.0677234207003914e+00  -1.0699253466589855e+00  -1.0719022278770129e+00  -1.0740945653456588e+00  -1.0759749210969021e+00  -1.0780427459209392e+00  -1.0800197886465903e+00  -1.0819045054924490e+00  -1.0839980148433468e+00  -1.0858487276600026e+00  -1.0879155220107732e+00  -1.0896533066357326e+00  -1.0916352266452589e+00  -1.0934135043498625e+00  -1.0951985531160537e+00  -1.0970474551047229e+00  -1.0987066711521161e+00  -1.1005110032588628e+00  -1.1020733410556833e+00  -1.1037058493681320e+00  -1.1053374025563374e+00  -1.1066567407346144e+00  -1.1082857296910398e+00  -1.1095220671839980e+00  -1.1109569817946108e+00  -1.1122590094505476e+00  -1.1134600656886238e+00  -1.1148060902624284e+00  -1.1159488751657880e+00  -1.1172132286847383e+00  -1.1183989713171507e+00  -1.1195426975895344e+00  -1.1206206777327370e+00  -1.1216963853819513e+00  -1.1227551725463683e+00  -1.1236698515115595e+00  -1.1247352092924328e+00  -1.1256987738677811e+00  -1.1266478786676379e+00  -1.1277096841895677e+00  -1.1285520893899987e+00  -1.1294042803946205e+00  -1.1301416855439710e+00  -1.1308390691797583e+00  -1.1313892748617922e+00  -1.1320204441314046e+00  -1.1325444501196478e+00  -1.1329234473129153e+00  -1.1333629147534514e+00  -1.1337445220017399e+00  -1.1341206415095062e+00  -1.1343597890231849e+00  -1.1346753487640990e+00  -1.1348706461441103e+00  -1.1350537158880425e+00  -1.1352666750224993e+00  -1.1353430357062895e+00  -1.1355338682933360e+00  -1.1355953950051703e+00  -1.1354802498502694e+00  -1.1355510060464395e+00  -1.1354105175603424e+00  -1.1352919341563232e+00  -1.1351198369231839e+00  -1.1347997330113764e+00  -1.1346183204263776e+00  -1.1342649179629174e+00  -1.1339302107492404e+00  -1.1335091252652605e+00  -1.1330811357550081e+00  -1.1325351068194243e+00  -1.1320464413550384e+00  -1.1314918982432614e+00  -1.1308154260352670e+00  -1.1302472274063471e+00  -1.1293571056364027e+00  -1.1286766064987432e+00  -1.1277799780276530e+00  -1.1269217118316330e+00  -1.1261426461491388e+00  -1.1252271509207170e+00  -1.1243677352971735e+00  -1.1233149893550054e+00  -1.1224184455811705e+00  -1.1212423902704070e+00  -1.1201234773664539e+00  -1.1189297997494470e+00  -1.1177073707949876e+00  -1.1165577133581805e+00  -1.1152359948463286e+00  -1.1140088065638831e+00  -1.1126149016901101e+00  -1.1111708375741536e+00  -1.1098277659745190e+00  -1.1083290137957518e+00  -1.1067845231254509e+00  -1.1052467036393570e+00  -1.1036477678418490e+00  -1.1019937793743670e+00  -1.1003111509072385e+00  -1.0986868592203842e+00  -1.0968742435326548e+00  -1.0952403551861780e+00  -1.0934168515864264e+00  -1.0916907145962949e+00  -1.0898838725183537e+00  -1.0879402801145208e+00  -1.0861870949306205e+00  -1.0841639232752511e+00  -1.0823352547475662e+00  -1.0802762180454977e+00  -1.0782777407952389e+00  -1.0763103638875642e+00  -1.0741272252565870e+00  -1.0721073736056022e+00  -1.0699998415361243e+00  -1.0677738377176988e+00  -1.0657031529539451e+00  -1.0634015067543678e+00  -1.0614082622758378e+00  -1.0589987313301403e+00  -1.0568702244975281e+00  -1.0546077317021987e+00  -1.0523637001721124e+00  -1.0501418390107402e+00  -1.0477507176827185e+00  -1.0456084004829735e+00  -1.0430718740905380e+00  -1.0408267210757303e+00  -1.0383854998710902e+00  -1.0359657277333607e+00  -1.0336406249393475e+00  -1.0310485293225988e+00  -1.0286959495998891e+00  -1.0260749259636146e+00  -1.0236267255700875e+00  -1.0211009872941297e+00  -1.0184419517997629e+00  -1.0160652492049145e+00  -1.0133339567851969e+00  -1.0109080194738003e+00  -1.0082786287038912e+00  -1.0056822152271725e+00  -1.0032470625686947e+00  -1.0006437334495040e+00  -9.9821824404559456e-01  -9.9552030354779408e-01  -9.9310825896451749e-01  -9.9043856166981381e-01  -9.8787686653837170e-01  -9.8541891006602578e-01  -9.8264344155198269e-01  -9.8018570854305254e-01  -9.7745368881696970e-01  -9.7490566344483520e-01  -9.7233232925959512e-01  -9.6970837828321199e-01  -9.6732833260082063e-01  -9.6463618960296804e-01  -9.6226825599560828e-01  -9.5966128797623285e-01  -9.5718710914546334e-01  -9.5474402459843988e-01  -9.5215351866407172e-01  -9.4994090183832014e-01  -9.4731446196098312e-01  -9.4505942752921057e-01  -9.4255399664564588e-01  -9.4012017596349440e-01  -9.3787404767336613e-01  -9.3541208593843550e-01  -9.3324574029955454e-01  -9.3078742232777278e-01  -9.2859320655704303e-01  -9.2628867286005334e-01  -9.2389741690253735e-01  -9.2177378151120726e-01  -9.1936627138207527e-01  -9.1725608443211193e-01  -9.1494136334898946e-01  -9.1295039045181736e-01  -9.1070224665336774e-01  -9.0847774356691680e-01  -9.0657814236155498e-01  -9.0457326690523032e-01  -9.0275209061197881e-01  -9.0082584764278639e-01  -8.9882053026439979e-01  -8.9702315844856406e-01  -8.9505053406660817e-01  -8.9334016082554724e-01  -8.9149129399469940e-01  -8.8982511903146222e-01  -8.8818016354720186e-01  -8.8655673437462257e-01  -8.8502041816898114e-01  -8.8331519561673333e-01  -8.8185831985311414e-01  -8.8018679299776770e-01  -8.7863698795098999e-01  -8.7722862721728356e-01  -8.7566465991938069e-01  -8.7431266401285967e-01  -8.7296647107837066e-01  -8.7166174403237540e-01  -8.7041627595039062e-01  -8.6911764207350128e-01  -8.6817271044477684e-01  -8.6683076852058494e-01  -8.6601980625841257e-01  -8.6481878237976895e-01  -8.6406808554925330e-01  -8.6306304484126384e-01  -8.6222690204124219e-01  -8.6140040113096428e-01  -8.6055411266324500e-01  -8.5985045507569657e-01  -8.5911232114452740e-01  -8.5846407412901116e-01  -8.5790027196584573e-01  -8.5730113748861958e-01  -8.5689185721962269e-01  -8.5628717809305543e-01  -8.5597908629285568e-01  -8.5546571687648654e-01  -8.5524658272297216e-01  -8.5489572095833544e-01  -8.5465808357831008e-01  -8.5461591863746988e-01  -8.5437250363218942e-01  -8.5447773575707342e-01  -8.5441347723881378e-01  -8.5453583455199300e-01  -8.5478374601731721e-01  -8.5489972401858494e-01  -8.5533446618984832e-01  -8.5552116777307896e-01  -8.5608780665407924e-01  -8.5628656098743405e-01  -8.5680578781174743e-01  -8.5723181382670077e-01  -8.5771521157227726e-01  -8.5837267563254382e-01  -8.5881806277606421e-01  -8.5952599008892860e-01  -8.6015852492312739e-01  -8.6088914584814613e-01  -8.6162888916250713e-01  -8.6246386340324954e-01  -8.6346875079245600e-01  -8.6429567879362346e-01  -8.6534794425792894e-01  -8.6635701769528140e-01  -8.6753205129774336e-01  -8.6867821448522853e-01  -8.6981315512424029e-01  -8.7110996338232327e-01  -8.7236828868559591e-01  -8.7375697771932803e-01  -8.7516398389239292e-01  -8.7656972601478500e-01  -8.7813418356269857e-01  -8.7949486674290001e-01  -8.8118460259253673e-01  -8.8267255818457202e-01  -8.8439080194268149e-01  -8.8591442891206551e-01  -8.8757756530066356e-01  -8.8931011217380895e-01  -8.9091564231434384e-01  -8.9278530333680095e-01  -8.9450324949380566e-01  -8.9630757015642559e-01  -8.9823982300284944e-01  -8.9999087622715301e-01  -9.0203759792439231e-01  -9.0388333700359313e-01  -9.0592482650757300e-01  -9.0790805344633685e-01  -9.0988489246315829e-01  -9.1201681698653625e-01  -9.1398486893653408e-01  -9.1624157246932481e-01  -9.1830820810993541e-01  -9.2059517553324732e-01  -9.2279277099506096e-01  -9.2501510065641979e-01  -9.2743382104584582e-01  -9.2955600122704241e-01  -9.3207704854493367e-01  -9.3433845067989385e-01  -9.3675711232045900e-01  -9.3911775971640876e-01  -9.4138909622242206e-01  -9.4398018845530596e-01  -9.4627899216050138e-01  -9.4886883986740789e-01  -9.5125136318002934e-01  -9.5366904450116452e-01  -9.5624152608587243e-01  -9.5857060749713874e-01  -9.6125306510491570e-01  -9.6359947069486929e-01  -9.6623913075507450e-01  -9.6872959064464115e-01  -9.7118427004670649e-01  -9.7385358081534379e-01  -9.7620066029106156e-01  -9.7894060327504440e-01  -9.8137122111696351e-01  -9.8397884794691148e-01  -9.8661111373954391e-01  -9.8906966737527857e-01  -9.9179588762047277e-01  -9.9415207056784172e-01  -9.9678470397763397e-01  -9.9927923252706463e-01  -1.0018287164995907e+00  -1.0044922488648493e+00  -1.0069429559573237e+00  -1.0097122006273080e+00  -1.0120998081506518e+00  -1.0147185256822082e+00  -1.0172839997270289e+00  -1.0197493236224655e+00  -1.0224586577841803e+00  -1.0248121490328186e+00  -1.0274834028975128e+00  -1.0298707668864826e+00  -1.0323234856331278e+00  -1.0348271801693305e+00  -1.0371298869848495e+00  -1.0396840804206446e+00  -1.0419449301184844e+00  -1.0444080941725027e+00  -1.0466967117904644e+00  -1.0490022460268740e+00  -1.0514509935013330e+00  -1.0536367321344500e+00  -1.0561236735290973e+00  -1.0582034049003211e+00  -1.0605280867729183e+00  -1.0627646723392661e+00  -1.0648701285480850e+00  -1.0671992827059478e+00  -1.0691697851369271e+00  -1.0714498873099279e+00  -1.0734651742658945e+00  -1.0755340749556388e+00  -1.0776080390212501e+00  -1.0795096605668510e+00  -1.0815699411133393e+00  -1.0834054749662110e+00  -1.0854665032596658e+00  -1.0872882480985131e+00  -1.0892403009332403e+00  -1.0910865666295482e+00  -1.0928558013080809e+00  -1.0947482448243802e+00  -1.0963975714233565e+00  -1.0981417151963258e+00  -1.0998877737108497e+00  -1.1014671813444923e+00  -1.1031679511014660e+00  -1.1046328370663945e+00  -1.1062275387152851e+00  -1.1076592096459958e+00  -1.1091204959158274e+00  -1.1104766314708447e+00  -1.1118628754344464e+00  -1.1132628989464104e+00  -1.1145301328006612e+00  -1.1159293615254864e+00  -1.1170702458658477e+00  -1.1183907951597174e+00  -1.1196411021882080e+00  -1.1207487645665646e+00  -1.1219331488493258e+00  -1.1229389314413247e+00  -1.1239654455675832e+00  -1.1247763633021333e+00  -1.1257573090199358e+00  -1.1266467224499963e+00  -1.1273845889793359e+00  -1.1282235469749162e+00  -1.1289652359399407e+00  -1.1296561667623981e+00  -1.1302501904474467e+00  -1.1308291653331937e+00  -1.1313433807702764e+00  -1.1318415785940359e+00  -1.1323988447591007e+00  -1.1328707190937979e+00  -1.1334231675174313e+00  -1.1339094390836961e+00  -1.1341574824241016e+00  -1.1346458103359311e+00  -1.1349158644277639e+00  -1.1352243350756235e+00  -1.1354717785244497e+00  -1.1355373573378527e+00  -1.1357517423218724e+00  -1.1357801809629151e+00  -1.1358542743150986e+00  -1.1357208013879545e+00  -1.1357451287649185e+00  -1.1356502210896422e+00  -1.1355323090949854e+00  -1.1353805097473375e+00  -1.1350198011599060e+00  -1.1348542019284122e+00  -1.1343344280943384e+00  -1.1340815814306826e+00  -1.1334319401532709e+00  -1.1327848678649510e+00  -1.1322631764420128e+00  -1.1315833772208423e+00  -1.1309939828060254e+00  -1.1303265767632968e+00  -1.1294343167749894e+00  -1.1285168742578988e+00  -1.1275638235421221e+00  -1.1265417449047310e+00  -1.1255494653990652e+00  -1.1245440020200579e+00  -1.1236106401633066e+00  -1.1227096752133969e+00  -1.1217088621387974e+00  -1.1205878668015574e+00  -1.1196829461821129e+00  -1.1185368931875650e+00  -1.1174271983126838e+00  -1.1164079832684766e+00  -1.1151073415388413e+00  -1.1140828593667347e+00  -1.1126396876369529e+00  -1.1113824728246600e+00  -1.1099610909954423e+00  -1.1087039911226431e+00  -1.1072742722684401e+00  -1.1058585151462836e+00  -1.1043930489802252e+00  -1.1028152904816089e+00  -1.1013357032441093e+00  -1.0996685612409089e+00  -1.0980899543160092e+00  -1.0963000733615529e+00  -1.0945127181171073e+00  -1.0927550501612866e+00  -1.0908529622992986e+00  -1.0890638805288535e+00  -1.0871256844193409e+00  -1.0851800829793627e+00  -1.0832446690738233e+00  -1.0811297941732863e+00  -1.0792732878912308e+00  -1.0770612280828027e+00  -1.0750690990785645e+00  -1.0729013704318260e+00  -1.0707191580712745e+00  -1.0686240000374458e+00  -1.0662803545078656e+00  -1.0643330118021825e+00  -1.0619015241227834e+00  -1.0597468139595634e+00  -1.0575004184329460e+00  -1.0552014988544767e+00  -1.0530358288781902e+00  -1.0506114897304371e+00  -1.0483783017508190e+00  -1.0459435380710398e+00  -1.0436458546864957e+00  -1.0412566120677949e+00  -1.0388138045546218e+00  -1.0365054954598798e+00  -1.0339521267698903e+00  -1.0316410056857885e+00  -1.0290821483929333e+00  -1.0266235957735079e+00  -1.0241753985091615e+00  -1.0215865040553600e+00  -1.0192366463591269e+00  -1.0165939460545865e+00  -1.0142055367467027e+00  -1.0115786424821547e+00  -1.0089685137493587e+00  -1.0064794049879218e+00  -1.0037628353736603e+00  -1.0013793260210737e+00  -9.9872430750326235e-01  -9.9624679329047405e-01  -9.9369212384992212e-01  -9.9104615171569643e-01  -9.8861314494697261e-01  -9.8591369180298494e-01  -9.8350367617893919e-01  -9.8083968303138125e-01  -9.7829149354381595e-01  -9.7579668404223541e-01  -9.7306002034728867e-01  -9.7063317998063303e-01  -9.6793941625289337e-01  -9.6551986203729157e-01  -9.6295913727401594e-01  -9.6043550456763416e-01  -9.5804248509786671e-01  -9.5539538757226194e-01  -9.5308