<?xml version="1.0"?>
<VTKFile type="UnstructuredGrid"  version="0.1"  >
<UnstructuredGrid>
<Piece  NumberOfPoints="4276" NumberOfCells="6768">
<Points>
<DataArray  type="Float64"  NumberOfComponents="3"  format="ascii">0 0.01 0  10 0.01 0  0 1.025541181621114 0  10 1.025541181621114 0  0.007129524987038337 0.009997491741717768 0  0.01258064459049757 0.00999219056738478 0  0.01872173241756402 0.009982708334120727 0  0.02429919625640796 0.009970876572043954 0  0.03017238705920286 0.009955108531615313 0  0.03612352734296466 0.0099356743715591 0  0.04164979236492252 0.009914517792428084 0  0.04780928449023854 0.009887415768096998 0  0.05327287671237849 0.009860276931383746 0  0.0593436395885565 0.009826715421083503 0  0.06505608699933001 0.009791870631895848 0  0.07077243060783153 0.009753845329312128 0  0.07684085351634186 0.009710036052663748 0  0.08230528612367993 0.009667566921662384 0  0.08846525752759338 0.009616276826848907 0  0.09398926586603956 0.0095672187064786 0  0.09994377871281757 0.009511110804477986 0  0.10581288515308 0.009452550633355501 0  0.1113930001121819 0.009393893683773193 0  0.1175326299024069 0.009326020378011352 0  0.122983161250664 0.009262856809916281 0  0.1290978349347763 0.009188765415777931 0  0.1347300222736412 0.00911751981665075 0  0.1405327472005438 0.009041131768776852 0  0.1465421455697866 0.008958856277281909 0  0.1520341809431761 0.008880870879718691 0  0.1581991754706344 0.00879018143976357 0  0.1636834803794234 0.008706732874359017 0  0.1697073563005918 0.008612096527554045 0  0.1754901396361989 0.008518345936558386 0  0.1811391035120075 0.008424050210098115 0  0.1872444279222087 0.00831915423323064 0  0.1926961446341008 0.008222899998379215 0  0.198841090009393 0.008111516418624823 0  0.2044064770158165 0.008008028244452866 0  0.2102948627703611 0.007895869216798803 0  0.2162299794791283 0.007780085801116003 0  0.2217647046821167 0.007669675498109103 0  0.2279204403470532 0.007544154739747676 0  0.2333791472114919 0.007430485124751003 0  0.2394590817234977 0.0073013084386626 0  0.245152498789355 0.007177928079207972 0  0.2508861115607116 0.007051356111670669 0  0.2569419868439766 0.006915186417023598 0  0.2624099649457279 0.006790084113692359 0  0.2685711825796066 0.006646722567663751 0  0.274083748205357 0.006516341894728842 0  0.2800541704182985 0.00637292855786236 0  0.2859022845836161 0.006230279166502627 0  0.291495955429921 0.006091868246150131 0  0.2976275706217687 0.005937986548763313 0  0.3030757324287757 0.005799406374294222 0  0.3091980118239236 0.005641654227187252 0  0.3148109405089491 0.005495191514879527 0  0.3206341933715942 0.005341435282378838 0  0.3266248575896781 0.005181393525330103 0  0.3321252080346692 0.005032833254881577 0  0.3382880718234609 0.004864596209960478 0  0.3437628463580178 0.004713611578807419 0  0.3498021006600692 0.004545443593512952 0  0.3555594631656461 0.004383601001460968 0  0.3612291099056053 0.004222822711549606 0  0.3673210805066339 0.004048576418709386 0  0.3727746135437823 0.003891330909934085 0  0.3789246700786391 0.003712634483246944 0  0.3844721023230384 0.00355025746928806 0  0.3903845048135511 0.003376011435332509 0  0.3962935688476314 0.003200699755406988 0  0.4018430601204535 0.00303505085978487 0  0.4079921977692303 0.002850427660455144 0  0.4134449905916002 0.002685819499171436 0  0.4195385366679084 0.002500937932218923 0  0.425204482428441 0.002328206591247292 0  0.4309651825948974 0.00215183074136113 0  0.4370014133195289 0.001966263547608745 0  0.4424769325836848 0.00179732019881714 0  0.4486395183564056 0.001606544730410899 0  0.4541373275735043 0.001435838569361521 0  0.4601308451156257 0.001249254088784412 0  0.4659488863550298 0.001067707976620331 0  0.471564807260988 0.0008921302908496037 0  0.4776843759254726 0.0007004920228137959 0  0.4831317484445766 0.0005296836585198918 0  0.4892643513384632 0.0003372062279158936 0  0.4948528283485032 0.000161696161435303 0  0.5007056813361916 -2.216943068070812e-05 0  0.5066699093509902 -0.000209526046556915 0  0.5121845298566023 -0.0003826949545447442 0  0.5183439831944545 -0.0005759742926309219 0  0.5238088617282698 -0.0007472800272428554 0  0.5298681543527348 -0.0009369594486414562 0  0.5355929349139432 -0.001115856450691032 0  0.5412927239341832 -0.001293613669039852 0  0.5473668732672543 -0.001482588207084091 0  0.5528259073001393 -0.001651967505962102 0  0.5589819336317072 -0.001842386787779294 0  0.5645100189486582 -0.002012797049529044 0  0.5704524332663232 -0.002195301346534757 0  0.5763298911552834 -0.002375058665203144 0  0.5819006708717119 -0.002544689651648297 0  0.5880413281562127 -0.002730768313747055 0  0.5934904284812221 -0.002895042191696308 0  0.5995995320960693 -0.003078202338538874 0  0.605236779888003 -0.003246210954182579 0  0.6110299855290301 -0.003417806240976177 0  0.6170432999212266 -0.00359472323302265 0  0.6225307972792151 -0.00375505261922207 0  0.6286944373476531 -0.003933803567825084 0  0.6341794289295242 -0.004091634709336539 0  0.6401977648984302 -0.004263413669385436 0  0.6459846030577213 -0.004427148756161272 0  0.6516277670629291 -0.004585409549508515 0  0.6577342305863492 -0.004755038487876419 0  0.6631843111407589 -0.004904958327357115 0  0.6693271588517591 -0.005072208653571043 0  0.6748942591145469 -0.005222152905474348 0  0.6807781354428797 -0.005378892074409919 0  0.6867158102497221 -0.005535201343768038 0  0.6922478556369909 -0.005679100421160843 0  0.6984036264198542 -0.005837205328254034 0  0.7038624132928571 -0.005975584427524931 0  0.7099402809449575 -0.006127588021236129 0  0.7156361945945205 -0.006268012368771779 0  0.7213667017809595 -0.006407263887957157 0  0.7274241898103784 -0.006552202568912044 0  0.7328913375361901 -0.006680980644346233 0  0.7390522654079078 -0.006823736587757829 0  0.7445663161830813 -0.006949337256267011 0  0.7505345306161221 -0.007082931996795786 0  0.7563856967966242 -0.007211490056377221 0  0.7619775509571868 -0.007332073958440476 0  0.7681106054434813 -0.007461725199742056 0  0.7735594228940573 -0.007574589702563127 0  0.7796809699364847 -0.007698739982391196 0  0.7852974086111042 -0.007810142587226769 0  0.7911178568436495 -0.007923025648348906 0  0.797112403703894 -0.008036515862006795 0  0.8026119630288198 -0.008138129173272899 0  0.8087760180262171 -0.008249131188213875 0  0.814253500572072 -0.008345174877796967 0  0.8202905515677629 -0.008448166667805387 0  0.8260544286221699 -0.008543663134562481 0  0.831720415905675 -0.008634807324656511 0  0.8378167080097026 -0.008729817306667463 0  0.8432709709919499 -0.008812108559864256 0  0.8494209576248264 -0.008901791974276371 0  0.8549745826348545 -0.008979924427376591 0  0.8608814329347291 -0.009060026011188804 0  0.8667998142885592 -0.009137155111096256 0  0.8723460990452367 -0.009206568509458774 0  0.8784989383774584 -0.009280301817794542 0  0.8839552890388401 -0.009342788637451834 0  0.8900456692707091 -0.009409293585850673 0  0.8957233874467343 -0.009468190513990782 0  0.9014754209053449 -0.009524786393944277 0  0.9075213579987256 -0.009580921173179099 0  0.9129954731058688 -0.009628765913494807 0  0.9191593188847452 -0.009679229788646495 0  0.9246655330424429 -0.009721240864333262 0  0.9306503084472221 -0.009763603884533442 0  0.9364847200361547 -0.009801580348484516 0  0.9420914259676206 -0.009834972127394636 0  0.948219177636862 -0.009867976960504428 0  0.9536688877131657 -0.009894257783109666 0  0.9597979104438458 -0.009920349306153329 0  0.9654020314719589 -0.009940987600901847 0  0.9712398170272581 -0.009959209624459757 0  0.9772219132298864 -0.009974407121723252 0  0.9827297975109929 -0.009985285083248089 0  0.9888934840407251 -0.009993913310034224 0  0.9943667421923366 -0.009998434045983932 0  1.000414962337846 -0.009999991502249178 0  1.00616395254491 -0.009998125110441144 0  1.011844857354635 -0.009993077234903055 0  1.017933801412069 -0.009984132829796667 0  1.023390946643176 -0.00997301205183276 0  1.029544679732296 -0.009956955598792184 0  1.035089558108845 -0.009939300412459717 0  1.041010936359372 -0.009917116481575694 0  1.04691554237944 -0.00989157814857561 0  1.052471258615448 -0.009864440751261633 0  1.05862104751389 -0.009830897850136421 0  1.064075481579663 -0.009798076706746352 0  1.070173358231585 -0.009757978136698224 0  1.075837941143087 -0.00971752009646258 0  1.081604377355612 -0.009673173917302162 0  1.087640686528322 -0.009623351755525641 0  1.093119387704205 -0.009575135453199036 0  1.099284093826516 -0.009517491101966447 0  1.104783734376909 -0.009463052176492596 0  1.110779897618174 -0.009400480030121557 0  1.116599992234411 -0.00933655469875222 0  1.122217899723542 -0.009271889359757672 0  1.128339818747432 -0.009198135031144493 0  1.133789446190431 -0.00912961705214143 0  1.139923317158062 -0.009049295973540348 0  1.145515844317945 -0.008973134373133167 0  1.151367773813766 -0.008890475161473248 0  1.157336906671575 -0.008803064948780913 0  1.16285160438384 -0.008719557366803981 0  1.16901331600552 -0.008623157866544266 0  1.174481522907442 -0.00853490108265173 0  1.180539122189597 -0.008434191931863186 0  1.186271617394136 -0.008336073959344166 0  1.191966996821913 -0.008235914041393521 0  1.198046448076202 -0.008126091334838595 0  1.203505695906331 -0.008024945109277802 0  1.209661806077474 -0.007908057515838151 0  1.21519584913737 -0.007800455577732041 0  1.221132109188887 -0.00768241304184519 0  1.227019087412133 -0.007562711583992629 0  1.232585135446325 -0.007447155722966398 0  1.238729389023077 -0.007316953404904543 0  1.244180486899644 -0.007199156086382225 0  1.250286093435722 -0.007064709646262071 0  1.255932842016573 -0.006938052500145445 0  1.261716857103797 -0.006806053534187844 0  1.26773845151126 -0.006666245775332091 0  1.273222687278595 -0.006536836953056475 0  1.279386853652711 -0.00638906998029936 0  1.284876650734994 -0.006255450389977176 0  1.290887326898431 -0.00610702037198264 0  1.296685536664392 -0.00596177282270944 0  1.30231949087952 -0.005818744638503708 0  1.308431215520824
[...]
<PointData  Scalars="Pressure"> 
<DataArray  type="Float64"  Name="Pressure"  format="ascii">-1.1232867215206577e+00  -1.1232867215206577e+00  -8.9558221640059255e-01  -8.9558221640059255e-01  -1.1232423797108326e+00  -1.1231705785074999e+00  -1.1230729432106314e+00  -1.1229080067462347e+00  -1.1227605201760624e+00  -1.1224049713335187e+00  -1.1222488946070024e+00  -1.1218868613359447e+00  -1.1215360555925538e+00  -1.1211603660175542e+00  -1.1206359592105524e+00  -1.1203193776317522e+00  -1.1196488106660101e+00  -1.1192295946611615e+00  -1.1185565107938065e+00  -1.1179443315506621e+00  -1.1172953642137835e+00  -1.1165850405180191e+00  -1.1158944529403796e+00  -1.1150733729480886e+00  -1.1143082695742121e+00  -1.1134622998081174e+00  -1.1125858309836556e+00  -1.1116838325118490e+00  -1.1106210592427139e+00  -1.1097510568333491e+00  -1.1086840938402136e+00  -1.1076961013964317e+00  -1.1066501095377637e+00  -1.1055023481954398e+00  -1.1044860220851103e+00  -1.1032547592737469e+00  -1.1020436200251722e+00  -1.1008458284383265e+00  -1.0995136063713036e+00  -1.0983345047896360e+00  -1.0968134615697742e+00  -1.0955849449988151e+00  -1.0940488716902768e+00  -1.0926055882288757e+00  -1.0911774086476402e+00  -1.0896008248906288e+00  -1.0881903616603879e+00  -1.0864961210795829e+00  -1.0850434387540058e+00  -1.0833089474683950e+00  -1.0816921538547897e+00  -1.0799252899764717e+00  -1.0781512407021132e+00  -1.0765485922503717e+00  -1.0746375348873294e+00  -1.0729478676860542e+00  -1.0710504555204845e+00  -1.0692537997851137e+00  -1.0674013990374926e+00  -1.0654656829048776e+00  -1.0637472942059005e+00  -1.0616551735190005e+00  -1.0597429751414640e+00  -1.0577087088824098e+00  -1.0556359667869959e+00  -1.0536708409314757e+00  -1.0515204060068071e+00  -1.0495689628199900e+00  -1.0473393242128366e+00  -1.0453072652779081e+00  -1.0431572409521923e+00  -1.0409850786708583e+00  -1.0389647113955756e+00  -1.0366939473202696e+00  -1.0346249484763135e+00  -1.0323127714737081e+00  -1.0301283278555238e+00  -1.0278845641840499e+00  -1.0255650425221610e+00  -1.0234935269931398e+00  -1.0210663052244731e+00  -1.0189141308595446e+00  -1.0165319272109421e+00  -1.0142535603929654e+00  -1.0119738616313247e+00  -1.0095052877577604e+00  -1.0073404414022653e+00  -1.0048824773949410e+00  -1.0026404395924102e+00  -1.0002828252657481e+00  -9.9783118660426462e-01  -9.9563377417377930e-01  -9.9310545079305446e-01  -9.9088108718352885e-01  -9.8843552402850376e-01  -9.8611963092950106e-01  -9.8385003390764247e-01  -9.8140080253688144e-01  -9.7929628803093571e-01  -9.7686581034691311e-01  -9.7470783166305952e-01  -9.7236666884031764e-01  -9.7007037560204046e-01  -9.6790952222899485e-01  -9.6548969914851179e-01  -9.6331533252122137e-01  -9.6083290331598359e-01  -9.5860373679411626e-01  -9.5624263557710598e-01  -9.5385974612257329e-01  -9.5170135691401125e-01  -9.4932421710044645e-01  -9.4723140448320897e-01  -9.4493242733614602e-01  -9.4277779509579973e-01  -9.4064844446879570e-01  -9.3841058337608274e-01  -9.3641622743390007e-01  -9.3417282190054873e-01  -9.3225071054262953e-01  -9.3014471754205530e-01  -9.2818978544608199e-01  -9.2628348179465259e-01  -9.2414290190309323e-01  -9.2237639912304437e-01  -9.2039724249784405e-01  -9.1852519292836687e-01  -9.1663865533612532e-01  -9.1479933574969086e-01  -9.1299758571236522e-01  -9.1113207184132061e-01  -9.0944088694775593e-01  -9.0765162683238076e-01  -9.0581511095752132e-01  -9.0411066854541877e-01  -9.0226864534155138e-01  -9.0070946360260029e-01  -8.9898394447378582e-01  -8.9739227433980207e-01  -8.9582244481272288e-01  -8.9418977165259561e-01  -8.9274967291211105e-01  -8.9126336601327738e-01  -8.8999592848726761e-01  -8.8857351570549403e-01  -8.8728042201296842e-01  -8.8596903241008695e-01  -8.8469726143923133e-01  -8.8352127970163108e-01  -8.8229057163811375e-01  -8.8121272303110620e-01  -8.8008381905676292e-01  -8.7896200003935021e-01  -8.7796839050547226e-01  -8.7692819788806387e-01  -8.7606759127295042e-01  -8.7515623569680789e-01  -8.7436241612467391e-01  -8.7357462138308117e-01  -8.7293377816665230e-01  -8.7221502303753506e-01  -8.7151855118967048e-01  -8.7095739365697877e-01  -8.7036362848071325e-01  -8.6985013461494409e-01  -8.6939802641094321e-01  -8.6896581051666955e-01  -8.6861582997902798e-01  -8.6825799183323105e-01  -8.6797524928512271e-01  -8.6767595567782951e-01  -8.6756422232566166e-01  -8.6733692112769434e-01  -8.6721861127910405e-01  -8.6714785101849734e-01  -8.6708539743524482e-01  -8.6707748258961659e-01  -8.6711777674605672e-01  -8.6723537648569082e-01  -8.6735648081473471e-01  -8.6756837388889518e-01  -8.6781062411730758e-01  -8.6807128417417267e-01  -8.6852717756248121e-01  -8.6881616156377117e-01  -8.6928453155053731e-01  -8.6974236406488969e-01  -8.7027527053340348e-01  -8.7082779994661741e-01  -8.7143169554278843e-01  -8.7213397799768066e-01  -8.7286952023803610e-01  -8.7360522954128106e-01  -8.7441825987661836e-01  -8.7530960951858083e-01  -8.7622090691580867e-01  -8.7711681378689921e-01  -8.7824156911408935e-01  -8.7913960790738488e-01  -8.8026658200942376e-01  -8.8129442013103110e-01  -8.8242018087067398e-01  -8.8360028815031932e-01  -8.8477468913654589e-01  -8.8607234746804731e-01  -8.8728696173772681e-01  -8.8868333600919203e-01  -8.9000491379200808e-01  -8.9140251256959724e-01  -8.9297068535360191e-01  -8.9434738587383622e-01  -8.9597807527964757e-01  -8.9746229345462081e-01  -8.9911955750302042e-01  -9.0071564008379801e-01  -9.0229787293897046e-01  -9.0403721469627607e-01  -9.0564382249887820e-01  -9.0752528811621902e-01  -9.0922195165243114e-01  -9.1096587227907344e-01  -9.1284312577930349e-01  -9.1448753613379019e-01  -9.1644638801198308e-01  -9.1821022576340827e-01  -9.2015202048903177e-01  -9.2205954288784586e-01  -9.2391141900902507e-01  -9.2603932209745221e-01  -9.2789268849883655e-01  -9.3010383188577161e-01  -9.3206883450415912e-01  -9.3419586927910192e-01  -9.3640613118532612e-01  -9.3842741929794349e-01  -9.4080765014289536e-01  -9.4293933398620755e-01  -9.4524366813303085e-01  -9.4742691454436045e-01  -9.4955987197799219e-01  -9.5183462646503769e-01  -9.5394702349994642e-01  -9.5636705553612722e-01  -9.5857944684249918e-01  -9.6094971356753933e-01  -9.6332832230941012e-01  -9.6553902045820006e-01  -9.6799317808304342e-01  -9.7012939239667895e-01  -9.7250228578141518e-01  -9.7476344206127330e-01  -9.7709973756232393e-01  -9.7953905395234375e-01  -9.8178460808784973e-01  -9.8432153780277043e-01  -9.8657481081217091e-01  -9.8902222594807965e-01  -9.9138024988006401e-01  -9.9363191931000916e-01  -9.9619858739281508e-01  -9.9835865328876472e-01  -1.0009322087716224e+00  -1.0031491443530762e+00  -1.0055030958247964e+00  -1.0078685147494804e+00  -1.0100168726460177e+00  -1.0123662937707414e+00  -1.0144943520404253e+00  -1.0168460146108438e+00  -1.0190388436272679e+00  -1.0212507984400410e+00  -1.0236020989969314e+00  -1.0256312314750082e+00  -1.0279281055049878e+00  -1.0300268687275185e+00  -1.0322969335678607e+00  -1.0344944375655420e+00  -1.0365980671661568e+00  -1.0389094040258917e+00  -1.0408901417054699e+00  -1.0431782812228863e+00  -1.0451729244805639e+00  -1.0472636859454438e+00  -1.0493763991285778e+00  -1.0513022327075612e+00  -1.0534700479893724e+00  -1.0553803244087605e+00  -1.0574543036360484e+00  -1.0593947800719556e+00  -1.0612852591193442e+00  -1.0633134057896418e+00  -1.0650415901490589e+00  -1.0671845889988842e+00  -1.0688704774199256e+00  -1.0708908656262879e+00  -1.0726858871454121e+00  -1.0745121531353490e+00  -1.0764337724105837e+00  -1.0780786025278706e+00  -1.0800432468415266e+00  -1.0816556699503386e+00  -1.0834819495699330e+00  -1.0850429897985405e+00  -1.0866487201289849e+00  -1.0882672435603278e+00  -1.0895935346507519e+00  -1.0911243983676766e+00  -1.0927167515099758e+00  -1.0940584156126882e+00  -1.0956630591849148e+00  -1.0970278859972080e+00  -1.0985492716461147e+00  -1.0997767527386160e+00  -1.1011924007204050e+00  -1.1024150805109016e+00  -1.1036515098897144e+00  -1.1049143818135838e+00  -1.1059955196834879e+00  -1.1070850805258716e+00  -1.1080518019743280e+00  -1.1089795633617769e+00  -1.1099652527503387e+00  -1.1108934255963221e+00  -1.1118823555268158e+00  -1.1126520194439007e+00  -1.1136814744918182e+00  -1.1143843524444825e+00  -1.1152853437454109e+00  -1.1160776895953097e+00  -1.1168067797892023e+00  -1.1175350387735659e+00  -1.1181539057315153e+00  -1.1187859868329479e+00  -1.1193348794893219e+00  -1.1198564644723963e+00  -1.1203459000047058e+00  -1.1207244439423649e+00  -1.1211327387605818e+00  -1.1214423603486479e+00  -1.1217855456214698e+00  -1.1219416597590077e+00  -1.1223002871193570e+00  -1.1225088636990459e+00  -1.1226704410789747e+00  -1.1228258940250559e+00  -1.1228537374310938e+00  -1.1229572152297664e+00  -1.1229508970858348e+00  -1.1229381326907852e+00  -1.1229048182052668e+00  -1.1228328300529897e+00  -1.1227320593152161e+00  -1.1225221156423670e+00  -1.1223177789385910e+00  -1.1220765455263555e+00  -1.1217844281845537e+00  -1.1214841207722126e+00  -1.1211300197401382e+00  -1.1207208161142270e+00  -1.1202403629373194e+00  -1.1197859301727833e+00  -1.1192550622864634e+00  -1.1187230474199750e+00  -1.1181710214364333e+00  -1.1174555547185205e+00  -1.1169215856228711e+00  -1.1161684718549101e+00  -1.1154080430382247e+00  -1.1147318014521439e+00  -1.1139131539133116e+00  -1.1131423763488864e+00  -1.1122015009143364e+00  -1.1113000343251147e+00  -1.1102638681304340e+00  -1.1092945265645267e+00  -1.1082565430912139e+00  -1.1071617896880013e+00  -1.1061460469250191e+00  -1.1049905240285238e+00  -1.1037800047496453e+00  -1.1026333252851908e+00  -1.1012856141532670e+00  -1.1001343731255671e+00  -1.0986040290144690e+00  -1.0973833365353665e+00  -1.0958399089350426e+00  -1.0943652646239790e+00  -1.0929347736099000e+00  -1.0912552583909521e+00  -1.0899134238703487e+00  -1.0882395756767393e+00  -1.0868118747696056e+00  -1.0851555618989062e+00  -1.0836204050355083e+00  -1.0819969567505321e+00  -1.0802764840741719e+00  -1.0787292359198162e+00  -1.0769986524138131e+00  -1.0753729064411712e+00  -1.0735769969807500e+00  -1.0717119722206168e+00  -1.0699787880451530e+00  -1.0679564416537206e+00  -1.0661496564497159e+00  -1.0641824176485204e+00  -1.0622358664223435e+00  -1.0602921943946100e+00  -1.0582303002407065e+00  -1.0563300216020723e+00  -1.0541831790103040e+00  -1.0522514202892730e+00  -1.0500887876682983e+00  -1.0480414014517858e+00  -1.0459672276352647e+00  -1.0438104701936601e+00  -1.0418221997712440e+00  -1.0395825688143367e+00  -1.0375449846280382e+00  -1.0352898490414992e+00  -1.0330819014114616e+00  -1.0309794529977787e+00  -1.0286262486089937e+00  -1.0265163763433431e+00  -1.0241076437380328e+00  -1.0218942715180439e+00  -1.0195685978382907e+00  -1.0171992498702365e+00  -1.0150587428567639e+00  -1.0126328798289370e+00  -1.0104259012414909e+00  -1.0080165661412579e+00  -1.0057241854367400e+00  -1.0034250432555527e+00  -1.0009548776140218e+00  -9.9875692814055961e-01  -9.9626882216687029e-01  -9.9407042696558978e-01  -9.9167672347437608e-01  -9.8934178183073451e-01  -9.8708508599494871e-01  -9.8458956579232360e-01  -9.8240027999805590e-01  -9.7986313810445880e-01  -9.7764252369847737e-01  -9.7531743668979498e-01  -9.7291014058697722e-01  -9.7069771627266832e-01  -9.6822943119403770e-01  -9.6608860718429090e-01  -9.6370919284777290e-01  -9.6141102111691523e-01  -9.5915487171466329e-01  -9.5670878843186757e-01  -9.5462438603932487e-01  -9.5218826699220238e-01  -9.5009788247787375e-01  -9.4775546067795668e-01  -9.4564102201937605e-01  -9.4352832289455069e-01  -9.4127897918701686e-01  -9.3929801674892721e-01  -9.3706411003853973e-01  -9.3501914558879373e-01  -9.3295333373740663e-01  -9.3087297090125909e-01  -9.2894071121881261e-01  -9.2675893731105663e-01  -9.2493764421402547e-01  -9.2279370507573555e-01  -9.2087746758176958e-01  -9.1898309378122978e-01  -9.1698773705059433e-01  -9.1523852541657225e-01  -9.1329569953598422e-01  -9.1154296324106054e-01  -9.0967803183801632e-01  -9.0792874543817881e-01  -9.0620846166426683e-01  -9.0433846023334663e-01  -9.0281659726407404e-01  -9.0092463693807101e-01  -8.9931124738790635e-01  -8.9760819345487430e-01  -8.9601000769325900e-01  -8.9447134427201835e-01  -8.9291868737940949e-01  -8.9154259098350119e-01  -8.9006998750426458e-01  -8.8877563460849440e-01  -8.8745144349459359e-01  -8.8609219769524294e-01  -8.8499516227704933e-01  -8.8365424210968113e-01  -8.8266896230919467e-01  -8.8147410247976643e-01  -8.8040007471410142e-01  -8.7941995062718192e-01  -8.7831099741346352e-01  -8.7739983404855648e-01  -8.7642414542168945e-01  -8.7555708064829019e-01  -8.7475927746291415e-01  -8.7393339491022226e-01  -8.7325849139098488e-01  -8.7253471790445836e-01  -8.7195629472511116e-01  -8.7122593172787732e-01  -8.7065881479335983e-01  -8.7014373384711352e-01  -8.6961098722126307e-01  -8.6922977796475553e-01  -8.6880246598999278e-01  -8.6844554914234673e-01  -8.6809119512750144e-01  -8.6782100316221233e-01  -8.6749789806901978e-01  -8.6723373325399900e-01  -8.6717528821546752e-01  -8.6697810828426114e-01  -8.6697789403108039e-01  -8.6698843038010509e-01  -8.6705224732664576e-01  -8.6725925742750343e-01  -8.6735756873334768e-01  -8.6763418574231477e-01  -8.6787033008664716e-01  -8.6822619072123897e-01  -8.6842790796490721e-01  -8.6888035661652330e-01  -8.6936697114714345e-01  -8.6981417649946158e-01  -8.7037209894665868e-01  -8.7086560120405021e-01  -8.7147233303690563e-01  -8.7216584464967450e-01  -8.7283807336032426e-01  -8.7362251784120415e-01  -8.7445282823770232e-01  -8.7531607377058962e-01  -8.7613643863517310e-01  -8.7704717444646429e-01  -8.7792345129637661e-01  -8.7889460500708139e-01  -8.7988276860358583e-01  -8.8090094350360393e-01  -8.8207113345322463e-01  -8.8311023554670598e-01  -8.8434577910883394e-01  -8.8550357987229489e-01  -8.8679646397737766e-01  -8.8821591463303884e-01  -8.8944477928767041e-01  -8.9097742680727898e-01  -8.9234907888464854e-01  -8.9394002349892487e-01  -8.9543187564108484e-01  -8.9698617008228254e-01  -8.9870915908349924e-01  -9.0016142946697153e-01  -9.0192648782646767e-01  -9.0349340518996235e-01  -9.0523060573313019e-01  -9.0701784910025729e-01  -9.0870352228870122e-01  -9.1064591766421366e-01  -9.1236875629712921e-01  -9.1433528315061452e-01  -9.1605475686838378e-01  -9.1794528804587783e-01  -9.1983807530633088e-01  -9.2162167523970573e-01  -9.2374724986467971e-01  -9.2551994098255574e-01  -9.2759038254500004e-01  -9.2960305497415585e-01  -9.3149924270781348e-01  -9.3364867687032960e-01  -9.3559504373885660e-01  -9.3783102031381627e-01  -9.3987261247546061e-01  -9.4210796418223086e-01  -9.4432414003708631e-01  -9.4646822247420470e-01  -9.4880029510782327e-01  -9.5088568124340833e-01  -9.5328254482176189e-01  -9.5547973513242646e-01  -9.5773776376340503e-01  -9.6014643392891819e-01  -9.6234836263800005e-01  -9.6483778810149612e-01  -9.6704276618212670e-01  -9.6944377663781378e-01  -9.7179178218999085e-01  -9.7407980357332236e-01  -9.7659917772126270e-01  -9.7873690978664996e-01  -9.8130100889508021e-01  -9.8356670592762452e-01  -9.8594893612723955e-01  -9.8839346142749807e-01  -9.9065373833750758e-01  -9.9316617106212057e-01  -9.9538634095823331e-01  -9.9784455845019571e-01  -1.0001865888151549e+00  -1.0025580847039735e+00  -1.0050392176274452e+00  -1.0072370672564681e+00  -1.0097078084006661e+00  -1.0119179926123558e+00  -1.0142590085578296e+00  -1.0165401877139209e+00  -1.0186026898567779e+00  -1.0210771007524126e+00  -1.0230019149567726e+00  -1.0253510504771810e+00  -1.0273877130623379e+00  -1.0295511276035447e+00  -1.0317918818256542e+00  -1.0338992575035721e+00  -1.0362357193181446e+00  -1.0382967161140164e+00  -1.0405470833988442e+00  -1.0426464165448572e+00  -1.0447483110811733e+00  -1.0468591348634562e+00  -1.0488473483283163e+00  -1.0509486754508113e+00  -1.0529113961649581e+00  -1.0549659089621686e+00  -1.0568981085292017e+00  -1.0589192559080223e+00  -1.0610323049386297e+00  -1.0627936817356287e+00  -1.0648846235412173e+00  -1.0667055955258165e+00  -1.0685986128043128e+00  -1.0704914714829856e+00  -1.0721755633662358e+00  -1.0741615422044781e+00  -1.0758690952131083e+00  -1.0777393532669011e+00  -1.0795428950507686e+00  -1.0811714454977326e+00  -1.0829051932265070e+00  -1.0844372751539726e+00  -1.0861866903833441e+00  -1.0877947155211791e+00  -1.0894197169701330e+00  -1.0909226686644418e+00  -1.0924651120816313e+00  -1.0940334948187669e+00  -1.0953091113679885e+00  -1.0968885458184028e+00  -1.0980857385959759e+00  -1.0995279605621717e+00  -1.1007854857216077e+00  -1.1019939345556860e+00  -1.1032762693591482e+00  -1.1043526657444245e+00  -1.1054624600285503e+00  -1.1065550969840454e+00  -1.1076050706962044e+00  -1.1087143677011100e+00  -1.1096732921699355e+00  -1.1107090128075423e+00  -1.1116148162213653e+00  -1.1125773029377901e+00  -1.1134037229785125e+00  -1.1143125194791936e+00  -1.1152210104667559e+00  -1.1159513758530779e+00  -1.1167257946444340e+00  -1.1174273408052806e+00  -1.1179581214310423e+00  -1.1185686237360204e+00  -1.1189814373380067e+00  -1.1195315907119074e+00  -1.1199448344126801e+00  -1.1204381936361678e+00  -1.1209226784654944e+00  -1.1213710408436885e+00  -1.1217633407200955e+00  -1.1221134060536770e+00  -1.1223844013071151e+00  -1.1224812139021914e+00  -1.1227577248552478e+00  -1.1229101115352698e+00  -1.1229464941276526e+00  -1.1231566523432546e+00  -1.1230348610298859e+00  -1.1231144749957058e+00  -1.1229705468511124e+00  -1.1228668148862135e+00  -1.1227227721840800e+00  -1.1225584525898773e+00  -1.1223758315058856e+00  -1.1221422420922662e+00  -1.1218941502814435e+00  -1.1214856373533248e+00  -1.1212741479436930e+00  -1.1208616791800554e+00  -1.1204897090831771e+00  -1.1200429020947420e+00  -1.1195406801637449e+00  -1.1190239216964977e+00  -1.1184460769185129e+00  -1.1178183048107240e+00  -1.1171143095938376e+00  -1.1164126606918290e+00  -1.1156778017339413e+00  -1.1148853156579908e+00  -1.1141562779659917e+00  -1.1132668093866407e+00  -1.1123230636186716e+00  -1.1114678949655921e+00  -1.1104854809508939e+00  -1.1095456463133093e+00  -1.1084276320788540e+00  -1.1075018344063583e+00  -1.1063219548679115e+00  -1.1052643956697563e+00  -1.1040787103860168e+00  -1.1027463822083179e+00  -1.1016622101708098e+00  -1.1002671613502764e+00  -1.0992004042701988e+00  -1.0977236974557751e+00  -1.0963551490299015e+00  -1.0949488992461431e+00  -1.0934844450494512e+00  -1.0920910932368029e+00  -1.0905308671466811e+00  -1.0890757441086516e+00  -1.0874699780706221e+00  -1.0858584483378879e+00  -1.0843316321459517e+00  -1.0825542528749601e+00  -1.0810363485053953e+00  -1.0791994071670974e+00  -1.0774985732337830e+00  -1.0757809224123416e+00  -1.0739401660342436e+00  -1.0722284263074782e+00  -1.0702845783503638e+00  -1.0684790105678716e+00  -1.0665521517380165e+00  -1.0646623637433430e+00  -1.0627646363007854e+00  -1.0607435327533103e+00  -1.0588841834133016e+00  -1.0567873966464583e+00  -1.0548635846284498e+00  -1.0527354856014899e+00  -1.0506109364457166e+00  -1.0486303316946812e+00  -1.0463270481189966e+00  -1.0443783204079484e+00  -1.0420211267925250e+00  -1.0398944228817764e+00  -1.0376441878150282e+00  -1.0353639839618203e+00  -1.0332507159550084e+00  -1.0308926273324410e+00  -1.0288064841968052e+00  -1.0265041562186652e+00  -1.0243007073024468e+00  -1.0220750969169179e+00  -1.0197263446226854e+00  -1.0176132959584367e+00  -1.0152655117270861e+00  -1.0131754822164893e+00  -1.0108451819988644e+00  -1.0085588532018070e+00  -1.0063684305474825e+00  -1.0039135888395669e+00  -1.0017921572514497e+00  -9.9934732185580588e-01  -9.9706937732500089e-01  -9.9470427162424679e-01  -9.9223951780435737e-01  -9.8997638321341896e-01  -9.8744096641788315e-01  -9.8516888921464552e-01  -9.8269802371209991e-01  -9.8038713083509066e-01  -9.7808486560365104e-01  -9.7559980153115777e-01  -9.7338071967314599e-01  -9.7100100148543100e-01  -9.6883387080030225e-01  -9.6657500167533528e-01  -9.6439683147253852e-01  -9.6222444041112454e-01  -9.5984699383802952e-01  -9.5776