<?xml version="1.0"?>
<VTKFile type="UnstructuredGrid"  version="0.1"  >
<UnstructuredGrid>
<Piece  NumberOfPoints="4281" NumberOfCells="6778">
<Points>
<DataArray  type="Float64"  NumberOfComponents="3"  format="ascii">0 0.01 0  10 0.01 0  0 1.023967135573201 0  10 1.023967135573201 0  0.007129524987038337 0.009997491741717768 0  0.01258064459049757 0.00999219056738478 0  0.01872173241756402 0.009982708334120727 0  0.02429919625640796 0.009970876572043954 0  0.03017238705920286 0.009955108531615313 0  0.03612352734296466 0.0099356743715591 0  0.04164979236492252 0.009914517792428084 0  0.04780928449023854 0.009887415768096998 0  0.05327287671237849 0.009860276931383746 0  0.0593436395885565 0.009826715421083503 0  0.06505608699933001 0.009791870631895848 0  0.07077243060783153 0.009753845329312128 0  0.07684085351634186 0.009710036052663748 0  0.08230528612367993 0.009667566921662384 0  0.08846525752759338 0.009616276826848907 0  0.09398926586603956 0.0095672187064786 0  0.09994377871281757 0.009511110804477986 0  0.10581288515308 0.009452550633355501 0  0.1113930001121819 0.009393893683773193 0  0.1175326299024069 0.009326020378011352 0  0.122983161250664 0.009262856809916281 0  0.1290978349347763 0.009188765415777931 0  0.1347300222736412 0.00911751981665075 0  0.1405327472005438 0.009041131768776852 0  0.1465421455697866 0.008958856277281909 0  0.1520341809431761 0.008880870879718691 0  0.1581991754706344 0.00879018143976357 0  0.1636834803794234 0.008706732874359017 0  0.1697073563005918 0.008612096527554045 0  0.1754901396361989 0.008518345936558386 0  0.1811391035120075 0.008424050210098115 0  0.1872444279222087 0.00831915423323064 0  0.1926961446341008 0.008222899998379215 0  0.198841090009393 0.008111516418624823 0  0.2044064770158165 0.008008028244452866 0  0.2102948627703611 0.007895869216798803 0  0.2162299794791283 0.007780085801116003 0  0.2217647046821167 0.007669675498109103 0  0.2279204403470532 0.007544154739747676 0  0.2333791472114919 0.007430485124751003 0  0.2394590817234977 0.0073013084386626 0  0.245152498789355 0.007177928079207972 0  0.2508861115607116 0.007051356111670669 0  0.2569419868439766 0.006915186417023598 0  0.2624099649457279 0.006790084113692359 0  0.2685711825796066 0.006646722567663751 0  0.274083748205357 0.006516341894728842 0  0.2800541704182985 0.00637292855786236 0  0.2859022845836161 0.006230279166502627 0  0.291495955429921 0.006091868246150131 0  0.2976275706217687 0.005937986548763313 0  0.3030757324287757 0.005799406374294222 0  0.3091980118239236 0.005641654227187252 0  0.3148109405089491 0.005495191514879527 0  0.3206341933715942 0.005341435282378838 0  0.3266248575896781 0.005181393525330103 0  0.3321252080346692 0.005032833254881577 0  0.3382880718234609 0.004864596209960478 0  0.3437628463580178 0.004713611578807419 0  0.3498021006600692 0.004545443593512952 0  0.3555594631656461 0.004383601001460968 0  0.3612291099056053 0.004222822711549606 0  0.3673210805066339 0.004048576418709386 0  0.3727746135437823 0.003891330909934085 0  0.3789246700786391 0.003712634483246944 0  0.3844721023230384 0.00355025746928806 0  0.3903845048135511 0.003376011435332509 0  0.3962935688476314 0.003200699755406988 0  0.4018430601204535 0.00303505085978487 0  0.4079921977692303 0.002850427660455144 0  0.4134449905916002 0.002685819499171436 0  0.4195385366679084 0.002500937932218923 0  0.425204482428441 0.002328206591247292 0  0.4309651825948974 0.00215183074136113 0  0.4370014133195289 0.001966263547608745 0  0.4424769325836848 0.00179732019881714 0  0.4486395183564056 0.001606544730410899 0  0.4541373275735043 0.001435838569361521 0  0.4601308451156257 0.001249254088784412 0  0.4659488863550298 0.001067707976620331 0  0.471564807260988 0.0008921302908496037 0  0.4776843759254726 0.0007004920228137959 0  0.4831317484445766 0.0005296836585198918 0  0.4892643513384632 0.0003372062279158936 0  0.4948528283485032 0.000161696161435303 0  0.5007056813361916 -2.216943068070812e-05 0  0.5066699093509902 -0.000209526046556915 0  0.5121845298566023 -0.0003826949545447442 0  0.5183439831944545 -0.0005759742926309219 0  0.5238088617282698 -0.0007472800272428554 0  0.5298681543527348 -0.0009369594486414562 0  0.5355929349139432 -0.001115856450691032 0  0.5412927239341832 -0.001293613669039852 0  0.5473668732672543 -0.001482588207084091 0  0.5528259073001393 -0.001651967505962102 0  0.5589819336317072 -0.001842386787779294 0  0.5645100189486582 -0.002012797049529044 0  0.5704524332663232 -0.002195301346534757 0  0.5763298911552834 -0.002375058665203144 0  0.5819006708717119 -0.002544689651648297 0  0.5880413281562127 -0.002730768313747055 0  0.5934904284812221 -0.002895042191696308 0  0.5995995320960693 -0.003078202338538874 0  0.605236779888003 -0.003246210954182579 0  0.6110299855290301 -0.003417806240976177 0  0.6170432999212266 -0.00359472323302265 0  0.6225307972792151 -0.00375505261922207 0  0.6286944373476531 -0.003933803567825084 0  0.6341794289295242 -0.004091634709336539 0  0.6401977648984302 -0.004263413669385436 0  0.6459846030577213 -0.004427148756161272 0  0.6516277670629291 -0.004585409549508515 0  0.6577342305863492 -0.004755038487876419 0  0.6631843111407589 -0.004904958327357115 0  0.6693271588517591 -0.005072208653571043 0  0.6748942591145469 -0.005222152905474348 0  0.6807781354428797 -0.005378892074409919 0  0.6867158102497221 -0.005535201343768038 0  0.6922478556369909 -0.005679100421160843 0  0.6984036264198542 -0.005837205328254034 0  0.7038624132928571 -0.005975584427524931 0  0.7099402809449575 -0.006127588021236129 0  0.7156361945945205 -0.006268012368771779 0  0.7213667017809595 -0.006407263887957157 0  0.7274241898103784 -0.006552202568912044 0  0.7328913375361901 -0.006680980644346233 0  0.7390522654079078 -0.006823736587757829 0  0.7445663161830813 -0.006949337256267011 0  0.7505345306161221 -0.007082931996795786 0  0.7563856967966242 -0.007211490056377221 0  0.7619775509571868 -0.007332073958440476 0  0.7681106054434813 -0.007461725199742056 0  0.7735594228940573 -0.007574589702563127 0  0.7796809699364847 -0.007698739982391196 0  0.7852974086111042 -0.007810142587226769 0  0.7911178568436495 -0.007923025648348906 0  0.797112403703894 -0.008036515862006795 0  0.8026119630288198 -0.008138129173272899 0  0.8087760180262171 -0.008249131188213875 0  0.814253500572072 -0.008345174877796967 0  0.8202905515677629 -0.008448166667805387 0  0.8260544286221699 -0.008543663134562481 0  0.831720415905675 -0.008634807324656511 0  0.8378167080097026 -0.008729817306667463 0  0.8432709709919499 -0.008812108559864256 0  0.8494209576248264 -0.008901791974276371 0  0.8549745826348545 -0.008979924427376591 0  0.8608814329347291 -0.009060026011188804 0  0.8667998142885592 -0.009137155111096256 0  0.8723460990452367 -0.009206568509458774 0  0.8784989383774584 -0.009280301817794542 0  0.8839552890388401 -0.009342788637451834 0  0.8900456692707091 -0.009409293585850673 0  0.8957233874467343 -0.009468190513990782 0  0.9014754209053449 -0.009524786393944277 0  0.9075213579987256 -0.009580921173179099 0  0.9129954731058688 -0.009628765913494807 0  0.9191593188847452 -0.009679229788646495 0  0.9246655330424429 -0.009721240864333262 0  0.9306503084472221 -0.009763603884533442 0  0.9364847200361547 -0.009801580348484516 0  0.9420914259676206 -0.009834972127394636 0  0.948219177636862 -0.009867976960504428 0  0.9536688877131657 -0.009894257783109666 0  0.9597979104438458 -0.009920349306153329 0  0.9654020314719589 -0.009940987600901847 0  0.9712398170272581 -0.009959209624459757 0  0.9772219132298864 -0.009974407121723252 0  0.9827297975109929 -0.009985285083248089 0  0.9888934840407251 -0.009993913310034224 0  0.9943667421923366 -0.009998434045983932 0  1.000414962337846 -0.009999991502249178 0  1.00616395254491 -0.009998125110441144 0  1.011844857354635 -0.009993077234903055 0  1.017933801412069 -0.009984132829796667 0  1.023390946643176 -0.00997301205183276 0  1.029544679732296 -0.009956955598792184 0  1.035089558108845 -0.009939300412459717 0  1.041010936359372 -0.009917116481575694 0  1.04691554237944 -0.00989157814857561 0  1.052471258615448 -0.009864440751261633 0  1.05862104751389 -0.009830897850136421 0  1.064075481579663 -0.009798076706746352 0  1.070173358231585 -0.009757978136698224 0  1.075837941143087 -0.00971752009646258 0  1.081604377355612 -0.009673173917302162 0  1.087640686528322 -0.009623351755525641 0  1.093119387704205 -0.009575135453199036 0  1.099284093826516 -0.009517491101966447 0  1.104783734376909 -0.009463052176492596 0  1.110779897618174 -0.009400480030121557 0  1.116599992234411 -0.00933655469875222 0  1.122217899723542 -0.009271889359757672 0  1.128339818747432 -0.009198135031144493 0  1.133789446190431 -0.00912961705214143 0  1.139923317158062 -0.009049295973540348 0  1.145515844317945 -0.008973134373133167 0  1.151367773813766 -0.008890475161473248 0  1.157336906671575 -0.008803064948780913 0  1.16285160438384 -0.008719557366803981 0  1.16901331600552 -0.008623157866544266 0  1.174481522907442 -0.00853490108265173 0  1.180539122189597 -0.008434191931863186 0  1.186271617394136 -0.008336073959344166 0  1.191966996821913 -0.008235914041393521 0  1.198046448076202 -0.008126091334838595 0  1.203505695906331 -0.008024945109277802 0  1.209661806077474 -0.007908057515838151 0  1.21519584913737 -0.007800455577732041 0  1.221132109188887 -0.00768241304184519 0  1.227019087412133 -0.007562711583992629 0  1.232585135446325 -0.007447155722966398 0  1.238729389023077 -0.007316953404904543 0  1.244180486899644 -0.007199156086382225 0  1.250286093435722 -0.007064709646262071 0  1.255932842016573 -0.006938052500145445 0  1.261716857103797 -0.006806053534187844 0  1.26773845151126 -0.006666245775332091 0  1.273222687278595 -0.006536836953056475 0  1.279386853652711 -0.00638906998029936 0  1.284876650734994 -0.006255450389977176 0  1.290887326898431 -0.00610702037198264 0  1.296685536664392 -0.00596177282270944 0  1.30231949087952 -0.005818744638503708 0  1.308431215520824
[...]
<PointData  Scalars="Pressure"> 
<DataArray  type="Float64"  Name="Pressure"  format="ascii">-1.1245435455036081e+00  -1.1245435455036081e+00  -8.9964354768098942e-01  -8.9964354768098942e-01  -1.1245021986667556e+00  -1.1244114530665656e+00  -1.1243197590666854e+00  -1.1241545788017884e+00  -1.1240047434518847e+00  -1.1236480000337947e+00  -1.1234930016094680e+00  -1.1231364109879525e+00  -1.1227879166053376e+00  -1.1224161412205109e+00  -1.1218940453201662e+00  -1.1215823618008907e+00  -1.1209187200121160e+00  -1.1205035940400045e+00  -1.1198334145147124e+00  -1.1192262528214840e+00  -1.1185744067650036e+00  -1.1178624182573296e+00  -1.1171622080781982e+00  -1.1163209377619430e+00  -1.1155379653867852e+00  -1.1146641162366540e+00  -1.1137683638057350e+00  -1.1128502310250550e+00  -1.1117723407504323e+00  -1.1109014112808779e+00  -1.1098375633252913e+00  -1.1088499864841381e+00  -1.1078107980688436e+00  -1.1066520154087212e+00  -1.1056095884823869e+00  -1.1043111603356335e+00  -1.1031007412155756e+00  -1.1018213393570357e+00  -1.1004924316147828e+00  -1.0992573786924822e+00  -1.0977407654255269e+00  -1.0964791332666188e+00  -1.0949277446210930e+00  -1.0934788991333471e+00  -1.0920321720380237e+00  -1.0904425967919731e+00  -1.0890225124693764e+00  -1.0873076379885311e+00  -1.0858550687602726e+00  -1.0841068797550335e+00  -1.0824774037068421e+00  -1.0807036603366484e+00  -1.0789068703369986e+00  -1.0773099280260474e+00  -1.0753790776594270e+00  -1.0736863935006764e+00  -1.0717112690008341e+00  -1.0699655332174125e+00  -1.0681094715764636e+00  -1.0661221704836166e+00  -1.0644126361272379e+00  -1.0623025752964710e+00  -1.0603769384443729e+00  -1.0583093955224037e+00  -1.0562053201674551e+00  -1.0542047322285142e+00  -1.0520329578456593e+00  -1.0500602091798532e+00  -1.0478055148738665e+00  -1.0457511490488289e+00  -1.0435765490992672e+00  -1.0413792071898378e+00  -1.0393358205737557e+00  -1.0370386735450636e+00  -1.0349465346209956e+00  -1.0326082687199030e+00  -1.0303994504282818e+00  -1.0281291664888268e+00  -1.0257834442512255e+00  -1.0236860441260949e+00  -1.0212336418590788e+00  -1.0190593676817237e+00  -1.0166511113644152e+00  -1.0143506031949119e+00  -1.0120451921582290e+00  -1.0095507639198975e+00  -1.0073609216464845e+00  -1.0048737017327567e+00  -1.0026062160778766e+00  -1.0002228608644206e+00  -9.9774400730272705e-01  -9.9552179077832914e-01  -9.9296492993810659e-01  -9.9071666932808478e-01  -9.8824526887308839e-01  -9.8590574733547487e-01  -9.8361258613366498e-01  -9.8113880155166555e-01  -9.7901314265887684e-01  -9.7655803341485570e-01  -9.7437908948021201e-01  -9.7201501362546572e-01  -9.6969609575500348e-01  -9.6751369124224518e-01  -9.6507137333018578e-01  -9.6287622896830860e-01  -9.6037171406235500e-01  -9.5812268768864994e-01  -9.5574002193304874e-01  -9.5333537073232399e-01  -9.5115763256859143e-01  -9.4875895849549963e-01  -9.4664742639332122e-01  -9.4432864435797170e-01  -9.4215486274372540e-01  -9.4000815513993818e-01  -9.3775033445643552e-01  -9.3574066527204103e-01  -9.3347780718547402e-01  -9.3153940092635767e-01  -9.2941683675697551e-01  -9.2744573997479407e-01  -9.2552475011675073e-01  -9.2336577051434832e-01  -9.2158510711643216e-01  -9.1959007695512240e-01  -9.1770266033385528e-01  -9.1580030281820657e-01  -9.1394629637931746e-01  -9.1212934468704832e-01  -9.1024830251395406e-01  -9.0854229591918412e-01  -9.0673880381430327e-01  -9.0488758018236193e-01  -9.0316947828037264e-01  -9.0131177839246945e-01  -8.9973964634336767e-01  -8.9799922837678192e-01  -8.9639379953115672e-01  -8.9481085888410994e-01  -8.9316413494547431e-01  -8.9171173192639130e-01  -8.9021244814649569e-01  -8.8893381971620145e-01  -8.8749908853695003e-01  -8.8619451781691838e-01  -8.8487212486314260e-01  -8.8358858567757992e-01  -8.8240268879354700e-01  -8.8116085998832061e-01  -8.8007375242329311e-01  -8.7893524700551950e-01  -8.7780415319510530e-01  -8.7680234099812993e-01  -8.7575288587601474e-01  -8.7488446649916252e-01  -8.7396566594089198e-01  -8.7316491877842128e-01  -8.7237092238765312e-01  -8.7172446448058294e-01  -8.7099981024042539e-01  -8.7029755871841274e-01  -8.6973143577038148e-01  -8.6913268945232147e-01  -8.6861528291464130e-01  -8.6815909275119407e-01  -8.6772356893482949e-01  -8.6737086811362907e-01  -8.6700899180818736e-01  -8.6672361983682555e-01  -8.6642134675081106e-01  -8.6630610789773643e-01  -8.6607764926542996e-01  -8.6595771654318177e-01  -8.6588601603583237e-01  -8.6582323498265568e-01  -8.6581453068755754e-01  -8.6585501663485087e-01  -8.6597303748222410e-01  -8.6609489833596198e-01  -8.6630846978012610e-01  -8.6655245555773286e-01  -8.6681619718961866e-01  -8.6727518356236322e-01  -8.6756749702349800e-01  -8.6803974982589405e-01  -8.6850152912170941e-01  -8.6903947831230788e-01  -8.6959722087900471e-01  -8.7020671358541024e-01  -8.7091558336098307e-01  -8.7165710691767284e-01  -8.7240021196599216e-01  -8.7322026099168870e-01  -8.7411973554289180e-01  -8.7503907090406396e-01  -8.7594329237520341e-01  -8.7707736964881733e-01  -8.7798401389211234e-01  -8.7912107043174548e-01  -8.8015829915612576e-01  -8.8129430474738157e-01  -8.8248503115156696e-01  -8.8366974556577094e-01  -8.8497944207874624e-01  -8.8620485235188495e-01  -8.8761399933656182e-01  -8.8894774769112173e-01  -8.9035759045125917e-01  -8.9193945086586579e-01  -8.9332829302112704e-01  -8.9497319367451023e-01  -8.9647029971278758e-01  -8.9814165662333267e-01  -8.9975185968193139e-01  -9.0134833343712628e-01  -9.0310295505215799e-01  -9.0472395603839462e-01  -9.0662169691001049e-01  -9.0833332977214809e-01  -9.1009338909291848e-01  -9.1198770831350218e-01  -9.1364809205071462e-01  -9.1562546347197371e-01  -9.1740587756400382e-01  -9.1936611179819550e-01  -9.2129167077257357e-01  -9.2316126969843981e-01  -9.2530901302756385e-01  -9.2718001242203985e-01  -9.2941193000231126e-01  -9.3139530851040542e-01  -9.3354231446159985e-01  -9.3577283240043418e-01  -9.3781330467977220e-01  -9.4021526443248871e-01  -9.4236625399660179e-01  -9.4469195725079058e-01  -9.4689534349219451e-01  -9.4904842039188309e-01  -9.5134464786891293e-01  -9.5347682307219184e-01  -9.5591970810919857e-01  -9.5815274878143974e-01  -9.6054557882883407e-01  -9.6294645971924575e-01  -9.6517828554157259e-01  -9.6765589154455134e-01  -9.6981251856225936e-01  -9.7220851261851826e-01  -9.7449156521763536e-01  -9.7685066379144003e-01  -9.7931353558566592e-01  -9.8158129113802894e-01  -9.8414322857474457e-01  -9.8641841876530989e-01  -9.8889060305006338e-01  -9.9127130980904266e-01  -9.9354638104887871e-01  -9.9613709636343484e-01  -9.9831906733815712e-01  -1.0009172832668645e+00  -1.0031564368623211e+00  -1.0055340533010160e+00  -1.0079226336341791e+00  -1.0100926688858822e+00  -1.0124654402050628e+00  -1.0146145177628181e+00  -1.0169898665365862e+00  -1.0192049547613737e+00  -1.0214395263729867e+00  -1.0238145197150614e+00  -1.0258648389579832e+00  -1.0281854964575416e+00  -1.0303057835525469e+00  -1.0325993933142430e+00  -1.0348196201045758e+00  -1.0369451051577470e+00  -1.0392803243162927e+00  -1.0412820184008376e+00  -1.0435939144799473e+00  -1.0456099412372628e+00  -1.0477227018193613e+00  -1.0498577652823473e+00  -1.0518038256543019e+00  -1.0539943660669147e+00  -1.0559248786434428e+00  -1.0580209993772707e+00  -1.0599821091895036e+00  -1.0618926827731443e+00  -1.0639421302615910e+00  -1.0656889938604268e+00  -1.0678537487719424e+00  -1.0695582509149812e+00  -1.0715992137822989e+00  -1.0734138772305564e+00  -1.0752590242257878e+00  -1.0772007641302657e+00  -1.0788635549518306e+00  -1.0808482743674965e+00  -1.0824790090573184e+00  -1.0843240136381842e+00  -1.0859031437225095e+00  -1.0875252092183056e+00  -1.0891619446670571e+00  -1.0905034482522542e+00  -1.0920517274518813e+00  -1.0936593974203535e+00  -1.0950171239324127e+00  -1.0966374875848413e+00  -1.0980173960543897e+00  -1.0995534160284208e+00  -1.1007953743551455e+00  -1.1022247687944897e+00  -1.1034622697689900e+00  -1.1047113191056814e+00  -1.1059883931573800e+00  -1.1070814021442950e+00  -1.1081838215629078e+00  -1.1091617833082372e+00  -1.1101005328445528e+00  -1.1110981128387469e+00  -1.1120365214206738e+00  -1.1130366162004377e+00  -1.1138164257675798e+00  -1.1148555281804504e+00  -1.1155679455460146e+00  -1.1164775838754104e+00  -1.1172788952690034e+00  -1.1180155976040684e+00  -1.1187518393357878e+00  -1.1193791471958259e+00  -1.1200171362519480e+00  -1.1205741870106665e+00  -1.1211006049319259e+00  -1.1215961999335196e+00  -1.1219791991591439e+00  -1.1223918987011408e+00  -1.1227052240314628e+00  -1.1230511496893363e+00  -1.1232098659673402e+00  -1.1235708422773119e+00  -1.1237808395118165e+00  -1.1239435043767043e+00  -1.1240999348750351e+00  -1.1241282859233181e+00  -1.1242306842534942e+00  -1.1242231184158733e+00  -1.1242093928265755e+00  -1.1241736121298977e+00  -1.1240989774386732e+00  -1.1239957636026907e+00  -1.1237818779382194e+00  -1.1235735087059664e+00  -1.1233296910828450e+00  -1.1230334297559856e+00  -1.1227301453198939e+00  -1.1223732100188086e+00  -1.1219610342970654e+00  -1.1214778961416862e+00  -1.1210190733187979e+00  -1.1204801553764221e+00  -1.1199382371830453e+00  -1.1193781852184566e+00  -1.1186507921482713e+00  -1.1181095572673336e+00  -1.1173475813376479e+00  -1.1165805103482647e+00  -1.1158995986332512e+00  -1.1150689361759352e+00  -1.1142830512848474e+00  -1.1133280868764936e+00  -1.1124092972264406e+00  -1.1113541975338443e+00  -1.1103726066776893e+00  -1.1093200967969596e+00  -1.1082134446289584e+00  -1.1071909476533670e+00  -1.1060268537010487e+00  -1.1048059124242093e+00  -1.1036459769232274e+00  -1.1022967036688474e+00  -1.1011260504060065e+00  -1.0996104927333676e+00  -1.0983824810034439e+00  -1.0968488132203782e+00  -1.0953803595366480e+00  -1.0939479387011120e+00  -1.0922766337636256e+00  -1.0909281976932190e+00  -1.0892576272534433e+00  -1.0878297258457335e+00  -1.0861693000154744e+00  -1.0846169574646145e+00  -1.0829740989814618e+00  -1.0812335897806991e+00  -1.0796555683462186e+00  -1.0778937890775622e+00  -1.0762384761926818e+00  -1.0743945546398639e+00  -1.0724895825545966e+00  -1.0706998896311450e+00  -1.0686273110063658e+00  -1.0667645562692931e+00  -1.0647381285067021e+00  -1.0627255608809587e+00  -1.0607488436257653e+00  -1.0586467096580598e+00  -1.0567304311462613e+00  -1.0545776849413033e+00  -1.0526219985558083e+00  -1.0504633239178200e+00  -1.0484079131491018e+00  -1.0463164837264576e+00  -1.0441789782705786e+00  -1.0421793544985862e+00  -1.0399478022293220e+00  -1.0379287333986242e+00  -1.0356164965119747e+00  -1.0334338179125533e+00  -1.0312884167066616e+00  -1.0288938533669698e+00  -1.0267387971934487e+00  -1.0243517911219753e+00  -1.0220757798998934e+00  -1.0196644145902354e+00  -1.0172490516456025e+00  -1.0150111251676668e+00  -1.0125008417897039e+00  -1.0103017923159592e+00  -1.0078518657811337e+00  -1.0055019631759641e+00  -1.0031433434894363e+00  -1.0007790219191082e+00  -9.9867320828504336e-01  -9.9609728362517092e-01  -9.9388294106456532e-01  -9.9146669785704988e-01  -9.8907965671903697e-01  -9.8687702020261792e-01  -9.8447558751643194e-01  -9.8228753493707976e-01  -9.7982813487081233e-01  -9.7754143006353167e-01  -9.7514009151501735e-01  -9.7263881204092428e-01  -9.7040084586886710e-01  -9.6785939554364420e-01  -9.6568081866602462e-01  -9.6327956276697180e-01  -9.6097023532475634e-01  -9.5876920431446699e-01  -9.5635736425502771e-01  -9.5428715459519453e-01  -9.5181425308043321e-01  -9.4981201030989859e-01  -9.4749660370136224e-01  -9.4536159951818322e-01  -9.4326328031414020e-01  -9.4097773007420205e-01  -9.3896047779269809e-01  -9.3668017012431615e-01  -9.3456946969296373e-01  -9.3243893144042289e-01  -9.3028762876516091e-01  -9.2830969011264675e-01  -9.2607105553367275e-01  -9.2419653415531011e-01  -9.2199443069815312e-01  -9.1998779344339821e-01  -9.1803878448908360e-01  -9.1598153854517417e-01  -9.1420284235718330e-01  -9.1224040412509610e-01  -9.1047206543944659e-01  -9.0858459022613813e-01  -9.0682508353617874e-01  -9.0509795519572689e-01  -9.0323866545466425e-01  -9.0172671307344698e-01  -8.9986350248521851e-01  -8.9826757976094729e-01  -8.9658402561251482e-01  -8.9499090043891283e-01  -8.9346117327992514e-01  -8.9190026261740585e-01  -8.9052026431198861e-01  -8.8903595815117364e-01  -8.8773660234345009e-01  -8.8639856981724208e-01  -8.8504054970786150e-01  -8.8392965025047765e-01  -8.8260943792009461e-01  -8.8159716405279021e-01  -8.8044020934669687e-01  -8.7931609864349403e-01  -8.7835959497603167e-01  -8.7722412298792163e-01  -8.7629016295825268e-01  -8.7531832465467652e-01  -8.7440594595437582e-01  -8.7360310383750106e-01  -8.7274691681515371e-01  -8.7202063504688831e-01  -8.7123323466252711e-01  -8.7063498655162086e-01  -8.6990957424782833e-01  -8.6928768185812066e-01  -8.6888559209042071e-01  -8.6828417387317303e-01  -8.6789797005797420e-01  -8.6744934552097430e-01  -8.6712793624284534e-01  -8.6679096018540402e-01  -8.6662075259837068e-01  -8.6632099662436535e-01  -8.6619723028809981e-01  -8.6613634299495923e-01  -8.6597750594772827e-01  -8.6594400634091406e-01  -8.6584345831546816e-01  -8.6580087691629293e-01  -8.6587237659663596e-01  -8.6598727475017057e-01  -8.6616018036161402e-01  -8.6633864690532769e-01  -8.6675761913097193e-01  -8.6701866159192431e-01  -8.6741784314883430e-01  -8.6789153835524591e-01  -8.6829739935786376e-01  -8.6887565179084014e-01  -8.6946295606779278e-01  -8.7018730644490805e-01  -8.7082156485930928e-01  -8.7157017510662160e-01  -8.7230868718857046e-01  -8.7307220312789036e-01  -8.7402083591978397e-01  -8.7477136765128161e-01  -8.7581043837765660e-01  -8.7673867309577946e-01  -8.7781199570340840e-01  -8.7882943430315352e-01  -8.7982601304684993e-01  -8.8107316213794484e-01  -8.8205983910372732e-01  -8.8338754225955829e-01  -8.8456864513160849e-01  -8.8589225034964114e-01  -8.8730881530248151e-01  -8.8854589380896865e-01  -8.9004474549688362e-01  -8.9141769421715111e-01  -8.9296398302053315e-01  -8.9444824451157301e-01  -8.9597509127267694e-01  -8.9766321157098405e-01  -8.9901849941302081e-01  -9.0085925910589182e-01  -9.0246781843001189e-01  -9.0419446849236529e-01  -9.0594112845659103e-01  -9.0756836981282785e-01  -9.0948157178462519e-01  -9.1119020196061895e-01  -9.1316264223483112e-01  -9.1505144959503570e-01  -9.1702827547636534e-01  -9.1912372476225968e-01  -9.2097407089122407e-01  -9.2307475128650551e-01  -9.2498562495099268e-01  -9.2707108804325322e-01  -9.2907416430870660e-01  -9.3101057611577143e-01  -9.3323609955064035e-01  -9.3525721018658803e-01  -9.3759155949284900e-01  -9.3968175129257092e-01  -9.4193411027169849e-01  -9.4419983286096532e-01  -9.4624060858660697e-01  -9.4861884063604840e-01  -9.5069896741232895e-01  -9.5306437653982812e-01  -9.5524189043921603e-01  -9.5751407767971985e-01  -9.5990404571146326e-01  -9.6208717603589655e-01  -9.6455400508015199e-01  -9.6678127361033872e-01  -9.6917378962854484e-01  -9.7148154640374407e-01  -9.7376890683953643e-01  -9.7623654773659296e-01  -9.7842831520987750e-01  -9.8094702394220146e-01  -9.8315963146118557e-01  -9.8552907854768124e-01  -9.8793578186186526e-01  -9.9020517651056439e-01  -9.9272722536197644e-01  -9.9495248334108477e-01  -9.9742184239365272e-01  -9.9973788790554974e-01  -1.0020865357150728e+00  -1.0044971747715983e+00  -1.0066841171591228e+00  -1.0091327067713753e+00  -1.0113097024784121e+00  -1.0137502365480369e+00  -1.0160614007177000e+00  -1.0183359569014694e+00  -1.0207707206288155e+00  -1.0228856893317191e+00  -1.0253473605762242e+00  -1.0275380035408330e+00  -1.0298110885490099e+00  -1.0321411598515551e+00  -1.0342845476440008e+00  -1.0366806497394776e+00  -1.0387948180113986e+00  -1.0411023015824747e+00  -1.0432917110419682e+00  -1.0454860393401415e+00  -1.0477260365106755e+00  -1.0497996226405786e+00  -1.0520340478693500e+00  -1.0539562367434199e+00  -1.0560482357827214e+00  -1.0580469546679965e+00  -1.0599088732739013e+00  -1.0619171150532278e+00  -1.0637199803149215e+00  -1.0656669804199568e+00  -1.0674744354472334e+00  -1.0693832696208241e+00  -1.0712463229283986e+00  -1.0730519102337510e+00  -1.0750313687827937e+00  -1.0767467505947470e+00  -1.0785916369109112e+00  -1.0803525890026242e+00  -1.0819816811073693e+00  -1.0836998900216066e+00  -1.0852145620992224e+00  -1.0869316441191348e+00  -1.0884902569350881e+00  -1.0901252255927747e+00  -1.0917758661708157e+00  -1.0932664000562060e+00  -1.0949088573652692e+00  -1.0962089226321279e+00  -1.0977973630178597e+00  -1.0989805819733529e+00  -1.1004045344111053e+00  -1.1016152268132198e+00  -1.1028581039177632e+00  -1.1041583760990821e+00  -1.1052296500932626e+00  -1.1065351734134408e+00  -1.1076848066247151e+00  -1.1087998005065443e+00  -1.1099364532106628e+00  -1.1108909661694575e+00  -1.1119466897023396e+00  -1.1129001644676408e+00  -1.1138566748092518e+00  -1.1147906069665710e+00  -1.1156170458469381e+00  -1.1163925577980565e+00  -1.1171243587915229e+00  -1.1178730947650932e+00  -1.1185314577410743e+00  -1.1191401979721411e+00  -1.1197936870481882e+00  -1.1203188121387129e+00  -1.1208894016111453e+00  -1.1213428122558744e+00  -1.1217768566378219e+00  -1.1222163715986886e+00  -1.1225995737949293e+00  -1.1230484866817305e+00  -1.1233725042238438e+00  -1.1236924311478829e+00  -1.1237830971814260e+00  -1.1240785897640666e+00  -1.1242278294496690e+00  -1.1242510918040964e+00  -1.1244426812777704e+00  -1.1243004771382563e+00  -1.1243725859287963e+00  -1.1242427437803377e+00  -1.1241537228795864e+00  -1.1240085065415011e+00  -1.1238544034566402e+00  -1.1236760003701458e+00  -1.1234444996791586e+00  -1.1232199359328499e+00  -1.1228181811807725e+00  -1.1226312710867312e+00  -1.1222256580274208e+00  -1.1218509441096289e+00  -1.1214036265894436e+00  -1.1209024200166962e+00  -1.1203823926161973e+00  -1.1198040315496027e+00  -1.1191774096280711e+00  -1.1184665108922074e+00  -1.1177621433747664e+00  -1.1170114594429221e+00  -1.1162083515173331e+00  -1.1154776166546094e+00  -1.1145654947939818e+00  -1.1135937170388834e+00  -1.1127098521908931e+00  -1.1116985375569532e+00  -1.1107486948485197e+00  -1.1095903513503407e+00  -1.1086101221428695e+00  -1.1073279930996562e+00  -1.1061434370178740e+00  -1.1048603238378152e+00  -1.1034460202265000e+00  -1.1023258951111710e+00  -1.1009707639383535e+00  -1.0998533547077336e+00  -1.0984093105575272e+00  -1.0970678316253439e+00  -1.0956871908255748e+00  -1.0942346064734163e+00  -1.0928479606231589e+00  -1.0912785685945181e+00  -1.0898261450581941e+00  -1.0882314328113551e+00  -1.0866564385353732e+00  -1.0851463121973115e+00  -1.0834259043612988e+00  -1.0819179558113317e+00  -1.0801219630084378e+00  -1.0784355154533189e+00  -1.0767142352807186e+00  -1.0748607795085350e+00  -1.0731191606511172e+00  -1.0711192297574685e+00  -1.0692636476053261e+00  -1.0672897715616971e+00  -1.0653570028711417e+00  -1.0634349422205871e+00  -1.0613776715407028e+00  -1.0594358540316287e+00  -1.0572394231317668e+00  -1.0552749208897672e+00  -1.0531145163440385e+00  -1.0510249233151598e+00  -1.0490131880505453e+00  -1.0466959533993341e+00  -1.0447174316116772e+00  -1.0423776485712086e+00  -1.0402941750947661e+00  -1.0381298306358915e+00  -1.0358614963339030e+00  -1.0337634635914597e+00  -1.0314248274349449e+00  -1.0293568659807326e+00  -1.0270154996811651e+00  -1.0247810289284787e+00  -1.0225406223428062e+00  -1.0201219308417719e+00  -1.0179414625446872e+00  -1.0154839278102401e+00  -1.0132548866642248e+00  -1.0108780468844807e+00  -1.0085283798963756e+00  -1.0062956339115905e+00  -1.0038141833802734e+00  -1.0016134196275077e+00  -9.9910990387789156e-01  -9.9684154762179822e-01  -9.9447307493830372e-01  -9.9205943821096965e-01  -9.8987343677046147e-01  -9.8733295961512935e-01  -9.8510069394776256e-01  -9.8258693424640020e-01  -9.8019704855261092e-01  -9.7789206705845111e-01  -9.7548208533072123e-01  -9.7329197451715277e-01  -9.7080955434923299e-01  -9.6859492163566774e-01  -9.6612597875108042e-01  -9.6375173411986659e-01  -9.6151613279949688e-01  -9.5906111048450826e-01  -9.5692