<?xml version="1.0"?>
<VTKFile type="UnstructuredGrid"  version="0.1"  >
<UnstructuredGrid>
<Piece  NumberOfPoints="4278" NumberOfCells="6772">
<Points>
<DataArray  type="Float64"  NumberOfComponents="3"  format="ascii">0 0.01 0  10 0.01 0  0 1.0209841656229 0  10 1.0209841656229 0  0.007129524987038337 0.009997491741717768 0  0.01258064459049757 0.00999219056738478 0  0.01872173241756402 0.009982708334120727 0  0.02429919625640796 0.009970876572043954 0  0.03017238705920286 0.009955108531615313 0  0.03612352734296466 0.0099356743715591 0  0.04164979236492252 0.009914517792428084 0  0.04780928449023854 0.009887415768096998 0  0.05327287671237849 0.009860276931383746 0  0.0593436395885565 0.009826715421083503 0  0.06505608699933001 0.009791870631895848 0  0.07077243060783153 0.009753845329312128 0  0.07684085351634186 0.009710036052663748 0  0.08230528612367993 0.009667566921662384 0  0.08846525752759338 0.009616276826848907 0  0.09398926586603956 0.0095672187064786 0  0.09994377871281757 0.009511110804477986 0  0.10581288515308 0.009452550633355501 0  0.1113930001121819 0.009393893683773193 0  0.1175326299024069 0.009326020378011352 0  0.122983161250664 0.009262856809916281 0  0.1290978349347763 0.009188765415777931 0  0.1347300222736412 0.00911751981665075 0  0.1405327472005438 0.009041131768776852 0  0.1465421455697866 0.008958856277281909 0  0.1520341809431761 0.008880870879718691 0  0.1581991754706344 0.00879018143976357 0  0.1636834803794234 0.008706732874359017 0  0.1697073563005918 0.008612096527554045 0  0.1754901396361989 0.008518345936558386 0  0.1811391035120075 0.008424050210098115 0  0.1872444279222087 0.00831915423323064 0  0.1926961446341008 0.008222899998379215 0  0.198841090009393 0.008111516418624823 0  0.2044064770158165 0.008008028244452866 0  0.2102948627703611 0.007895869216798803 0  0.2162299794791283 0.007780085801116003 0  0.2217647046821167 0.007669675498109103 0  0.2279204403470532 0.007544154739747676 0  0.2333791472114919 0.007430485124751003 0  0.2394590817234977 0.0073013084386626 0  0.245152498789355 0.007177928079207972 0  0.2508861115607116 0.007051356111670669 0  0.2569419868439766 0.006915186417023598 0  0.2624099649457279 0.006790084113692359 0  0.2685711825796066 0.006646722567663751 0  0.274083748205357 0.006516341894728842 0  0.2800541704182985 0.00637292855786236 0  0.2859022845836161 0.006230279166502627 0  0.291495955429921 0.006091868246150131 0  0.2976275706217687 0.005937986548763313 0  0.3030757324287757 0.005799406374294222 0  0.3091980118239236 0.005641654227187252 0  0.3148109405089491 0.005495191514879527 0  0.3206341933715942 0.005341435282378838 0  0.3266248575896781 0.005181393525330103 0  0.3321252080346692 0.005032833254881577 0  0.3382880718234609 0.004864596209960478 0  0.3437628463580178 0.004713611578807419 0  0.3498021006600692 0.004545443593512952 0  0.3555594631656461 0.004383601001460968 0  0.3612291099056053 0.004222822711549606 0  0.3673210805066339 0.004048576418709386 0  0.3727746135437823 0.003891330909934085 0  0.3789246700786391 0.003712634483246944 0  0.3844721023230384 0.00355025746928806 0  0.3903845048135511 0.003376011435332509 0  0.3962935688476314 0.003200699755406988 0  0.4018430601204535 0.00303505085978487 0  0.4079921977692303 0.002850427660455144 0  0.4134449905916002 0.002685819499171436 0  0.4195385366679084 0.002500937932218923 0  0.425204482428441 0.002328206591247292 0  0.4309651825948974 0.00215183074136113 0  0.4370014133195289 0.001966263547608745 0  0.4424769325836848 0.00179732019881714 0  0.4486395183564056 0.001606544730410899 0  0.4541373275735043 0.001435838569361521 0  0.4601308451156257 0.001249254088784412 0  0.4659488863550298 0.001067707976620331 0  0.471564807260988 0.0008921302908496037 0  0.4776843759254726 0.0007004920228137959 0  0.4831317484445766 0.0005296836585198918 0  0.4892643513384632 0.0003372062279158936 0  0.4948528283485032 0.000161696161435303 0  0.5007056813361916 -2.216943068070812e-05 0  0.5066699093509902 -0.000209526046556915 0  0.5121845298566023 -0.0003826949545447442 0  0.5183439831944545 -0.0005759742926309219 0  0.5238088617282698 -0.0007472800272428554 0  0.5298681543527348 -0.0009369594486414562 0  0.5355929349139432 -0.001115856450691032 0  0.5412927239341832 -0.001293613669039852 0  0.5473668732672543 -0.001482588207084091 0  0.5528259073001393 -0.001651967505962102 0  0.5589819336317072 -0.001842386787779294 0  0.5645100189486582 -0.002012797049529044 0  0.5704524332663232 -0.002195301346534757 0  0.5763298911552834 -0.002375058665203144 0  0.5819006708717119 -0.002544689651648297 0  0.5880413281562127 -0.002730768313747055 0  0.5934904284812221 -0.002895042191696308 0  0.5995995320960693 -0.003078202338538874 0  0.605236779888003 -0.003246210954182579 0  0.6110299855290301 -0.003417806240976177 0  0.6170432999212266 -0.00359472323302265 0  0.6225307972792151 -0.00375505261922207 0  0.6286944373476531 -0.003933803567825084 0  0.6341794289295242 -0.004091634709336539 0  0.6401977648984302 -0.004263413669385436 0  0.6459846030577213 -0.004427148756161272 0  0.6516277670629291 -0.004585409549508515 0  0.6577342305863492 -0.004755038487876419 0  0.6631843111407589 -0.004904958327357115 0  0.6693271588517591 -0.005072208653571043 0  0.6748942591145469 -0.005222152905474348 0  0.6807781354428797 -0.005378892074409919 0  0.6867158102497221 -0.005535201343768038 0  0.6922478556369909 -0.005679100421160843 0  0.6984036264198542 -0.005837205328254034 0  0.7038624132928571 -0.005975584427524931 0  0.7099402809449575 -0.006127588021236129 0  0.7156361945945205 -0.006268012368771779 0  0.7213667017809595 -0.006407263887957157 0  0.7274241898103784 -0.006552202568912044 0  0.7328913375361901 -0.006680980644346233 0  0.7390522654079078 -0.006823736587757829 0  0.7445663161830813 -0.006949337256267011 0  0.7505345306161221 -0.007082931996795786 0  0.7563856967966242 -0.007211490056377221 0  0.7619775509571868 -0.007332073958440476 0  0.7681106054434813 -0.007461725199742056 0  0.7735594228940573 -0.007574589702563127 0  0.7796809699364847 -0.007698739982391196 0  0.7852974086111042 -0.007810142587226769 0  0.7911178568436495 -0.007923025648348906 0  0.797112403703894 -0.008036515862006795 0  0.8026119630288198 -0.008138129173272899 0  0.8087760180262171 -0.008249131188213875 0  0.814253500572072 -0.008345174877796967 0  0.8202905515677629 -0.008448166667805387 0  0.8260544286221699 -0.008543663134562481 0  0.831720415905675 -0.008634807324656511 0  0.8378167080097026 -0.008729817306667463 0  0.8432709709919499 -0.008812108559864256 0  0.8494209576248264 -0.008901791974276371 0  0.8549745826348545 -0.008979924427376591 0  0.8608814329347291 -0.009060026011188804 0  0.8667998142885592 -0.009137155111096256 0  0.8723460990452367 -0.009206568509458774 0  0.8784989383774584 -0.009280301817794542 0  0.8839552890388401 -0.009342788637451834 0  0.8900456692707091 -0.009409293585850673 0  0.8957233874467343 -0.009468190513990782 0  0.9014754209053449 -0.009524786393944277 0  0.9075213579987256 -0.009580921173179099 0  0.9129954731058688 -0.009628765913494807 0  0.9191593188847452 -0.009679229788646495 0  0.9246655330424429 -0.009721240864333262 0  0.9306503084472221 -0.009763603884533442 0  0.9364847200361547 -0.009801580348484516 0  0.9420914259676206 -0.009834972127394636 0  0.948219177636862 -0.009867976960504428 0  0.9536688877131657 -0.009894257783109666 0  0.9597979104438458 -0.009920349306153329 0  0.9654020314719589 -0.009940987600901847 0  0.9712398170272581 -0.009959209624459757 0  0.9772219132298864 -0.009974407121723252 0  0.9827297975109929 -0.009985285083248089 0  0.9888934840407251 -0.009993913310034224 0  0.9943667421923366 -0.009998434045983932 0  1.000414962337846 -0.009999991502249178 0  1.00616395254491 -0.009998125110441144 0  1.011844857354635 -0.009993077234903055 0  1.017933801412069 -0.009984132829796667 0  1.023390946643176 -0.00997301205183276 0  1.029544679732296 -0.009956955598792184 0  1.035089558108845 -0.009939300412459717 0  1.041010936359372 -0.009917116481575694 0  1.04691554237944 -0.00989157814857561 0  1.052471258615448 -0.009864440751261633 0  1.05862104751389 -0.009830897850136421 0  1.064075481579663 -0.009798076706746352 0  1.070173358231585 -0.009757978136698224 0  1.075837941143087 -0.00971752009646258 0  1.081604377355612 -0.009673173917302162 0  1.087640686528322 -0.009623351755525641 0  1.093119387704205 -0.009575135453199036 0  1.099284093826516 -0.009517491101966447 0  1.104783734376909 -0.009463052176492596 0  1.110779897618174 -0.009400480030121557 0  1.116599992234411 -0.00933655469875222 0  1.122217899723542 -0.009271889359757672 0  1.128339818747432 -0.009198135031144493 0  1.133789446190431 -0.00912961705214143 0  1.139923317158062 -0.009049295973540348 0  1.145515844317945 -0.008973134373133167 0  1.151367773813766 -0.008890475161473248 0  1.157336906671575 -0.008803064948780913 0  1.16285160438384 -0.008719557366803981 0  1.16901331600552 -0.008623157866544266 0  1.174481522907442 -0.00853490108265173 0  1.180539122189597 -0.008434191931863186 0  1.186271617394136 -0.008336073959344166 0  1.191966996821913 -0.008235914041393521 0  1.198046448076202 -0.008126091334838595 0  1.203505695906331 -0.008024945109277802 0  1.209661806077474 -0.007908057515838151 0  1.21519584913737 -0.007800455577732041 0  1.221132109188887 -0.00768241304184519 0  1.227019087412133 -0.007562711583992629 0  1.232585135446325 -0.007447155722966398 0  1.238729389023077 -0.007316953404904543 0  1.244180486899644 -0.007199156086382225 0  1.250286093435722 -0.007064709646262071 0  1.255932842016573 -0.006938052500145445 0  1.261716857103797 -0.006806053534187844 0  1.26773845151126 -0.006666245775332091 0  1.273222687278595 -0.006536836953056475 0  1.279386853652711 -0.00638906998029936 0  1.284876650734994 -0.006255450389977176 0  1.290887326898431 -0.00610702037198264 0  1.296685536664392 -0.00596177282270944 0  1.30231949087952 -0.005818744638503708 0  1.308431215520824 -0.
[...]
<PointData  Scalars="Pressure"> 
<DataArray  type="Float64"  Name="Pressure"  format="ascii">-1.1269414456715838e+00  -1.1269414456715838e+00  -9.0788985797604338e-01  -9.0788985797604338e-01  -1.1268699362414822e+00  -1.1268019891729111e+00  -1.1267094836622353e+00  -1.1265438838105761e+00  -1.1263964949198966e+00  -1.1260445373460342e+00  -1.1258691733743589e+00  -1.1254771350024797e+00  -1.1251383064098710e+00  -1.1247481499741891e+00  -1.1242551547458846e+00  -1.1239287605346737e+00  -1.1232906516432311e+00  -1.1228555674712233e+00  -1.1221829053022323e+00  -1.1215620419900501e+00  -1.1208828422836363e+00  -1.1201238844324040e+00  -1.1193947663948260e+00  -1.1185217893469181e+00  -1.1177277695614360e+00  -1.1168523768383456e+00  -1.1159502391517304e+00  -1.1150238287739265e+00  -1.1139351758064708e+00  -1.1130584490227828e+00  -1.1119865642471267e+00  -1.1110210364948301e+00  -1.1098748391509681e+00  -1.1086854035274010e+00  -1.1076048062423545e+00  -1.1063009365882823e+00  -1.1050325597242487e+00  -1.1037305535046027e+00  -1.1023562868388845e+00  -1.1010603093065232e+00  -1.0995521725812121e+00  -1.0982742719859890e+00  -1.0967096476500626e+00  -1.0952301657585046e+00  -1.0937454719415876e+00  -1.0921323731817443e+00  -1.0906742397360616e+00  -1.0889281131249211e+00  -1.0874546558173783e+00  -1.0856780075854251e+00  -1.0840168044893077e+00  -1.0822111071467146e+00  -1.0803740867045535e+00  -1.0787624919735819e+00  -1.0768192919696498e+00  -1.0750571732445078e+00  -1.0731183309987877e+00  -1.0712756403107999e+00  -1.0693821759368429e+00  -1.0673147022921567e+00  -1.0655182200114341e+00  -1.0633621865763341e+00  -1.0614125055609491e+00  -1.0593277415426110e+00  -1.0572051210414122e+00  -1.0551795719471240e+00  -1.0529624974454677e+00  -1.0509542923615347e+00  -1.0486547953584389e+00  -1.0465578508951199e+00  -1.0443384429206233e+00  -1.0420954762540167e+00  -1.0400102892515179e+00  -1.0376673016845039e+00  -1.0355347793065370e+00  -1.0331518766227026e+00  -1.0309013292830504e+00  -1.0285878549845877e+00  -1.0261976794993504e+00  -1.0240592635933803e+00  -1.0215612679801436e+00  -1.0193462883028406e+00  -1.0168930319189029e+00  -1.0145495441426420e+00  -1.0122017991573802e+00  -1.0096613227001738e+00  -1.0074303938710325e+00  -1.0048961003267078e+00  -1.0025858458574111e+00  -1.0001582534351363e+00  -9.9763455169691129e-01  -9.9536880230251956e-01  -9.9276307299221445e-01  -9.9047369583782219e-01  -9.8795546312600235e-01  -9.8557470418451498e-01  -9.8323908270301053e-01  -9.8072067134335639e-01  -9.7855433866383457e-01  -9.7605332070220752e-01  -9.7383362474796642e-01  -9.7142591656685129e-01  -9.6906387188936149e-01  -9.6684060333452715e-01  -9.6435445901437422e-01  -9.6211947025161826e-01  -9.5957119553522630e-01  -9.5728249618743111e-01  -9.5485773067465796e-01  -9.5240999371762414e-01  -9.5019337862578857e-01  -9.4775205521661554e-01  -9.4560296578818714e-01  -9.4324389921408658e-01  -9.4103182936015561e-01  -9.3884833744776885e-01  -9.3655022058684545e-01  -9.3450668066646314e-01  -9.3220453458068409e-01  -9.3023183585508395e-01  -9.2807389919472671e-01  -9.2606779119788973e-01  -9.2411450550019059e-01  -9.2191792129275640e-01  -9.2010695894058847e-01  -9.1807711314700668e-01  -9.1615696062672336e-01  -9.1422157201822063e-01  -9.1233412647319712e-01  -9.1048640119947633e-01  -9.0857178794421256e-01  -9.0683573139080309e-01  -9.0500157460075437e-01  -9.0311975093875085e-01  -9.0137324945081942e-01  -8.9948422980102893e-01  -8.9788569007903685e-01  -8.9611572006458584e-01  -8.9448349662787507e-01  -8.9287435289170158e-01  -8.9120028709604460e-01  -8.8972386696130168e-01  -8.8819887916357365e-01  -8.8689838365598217e-01  -8.8543976223701992e-01  -8.8411327586185495e-01  -8.8277044485839440e-01  -8.8146463916500994e-01  -8.8026056416318854e-01  -8.7899826286304716e-01  -8.7789353629070510e-01  -8.7673723059045561e-01  -8.7558845073322333e-01  -8.7457089009649147e-01  -8.7350470153267101e-01  -8.7262220168091653e-01  -8.7168881282499144e-01  -8.7087518621238924e-01  -8.7006915742341762e-01  -8.6941099850575798e-01  -8.6867601773733183e-01  -8.6796303208890568e-01  -8.6738754319084022e-01  -8.6677967106374110e-01  -8.6625429107179119e-01  -8.6579064020170082e-01  -8.6534861784431405e-01  -8.6499053922918656e-01  -8.6462255099223684e-01  -8.6433286608261395e-01  -8.6402640539258402e-01  -8.6390700140475740e-01  -8.6367657234043360e-01  -8.6355465289595279e-01  -8.6348176918709751e-01  -8.6341879104475172e-01  -8.6341009738581331e-01  -8.6345150520823677e-01  -8.6357149785879606e-01  -8.6369555156041478e-01  -8.6391272866044222e-01  -8.6416084098553436e-01  -8.6443030195469694e-01  -8.6489526358405500e-01  -8.6519415862640470e-01  -8.6567414798262587e-01  -8.6614372729224853e-01  -8.6669156541026571e-01  -8.6725936718207675e-01  -8.6787974545809610e-01  -8.6860097036913064e-01  -8.6935403013040902e-01  -8.7011100282520903e-01  -8.7094450242671195e-01  -8.7185961077867080e-01  -8.7279453967890785e-01  -8.7371441077744849e-01  -8.7486652652776431e-01  -8.7578933614023879e-01  -8.7694582677294963e-01  -8.7800148549817125e-01  -8.7915681860454431e-01  -8.8036835094959520e-01  -8.8157369641309591e-01  -8.8290566427784523e-01  -8.8415238766192339e-01  -8.8558501136193990e-01  -8.8694121567675466e-01  -8.8837460774462029e-01  -8.8998216929291951e-01  -8.9139407155499140e-01  -8.9306625639815418e-01  -8.9458857743611675e-01  -8.9628582384409161e-01  -8.9792343685424125e-01  -8.9954615966228957e-01  -9.0132922747477540e-01  -9.0297762360910649e-01  -9.0490546182029519e-01  -9.0664530041555547e-01  -9.0843572839301112e-01  -9.1036249432028371e-01  -9.1205322360043040e-01  -9.1406575086400987e-01  -9.1587747240841810e-01  -9.1787321630125962e-01  -9.1983391794316949e-01  -9.2173933903395444e-01  -9.2392405792444088e-01  -9.2583026328560658e-01  -9.2810073956286410e-01  -9.3011859681993025e-01  -9.3230358894151066e-01  -9.3457181618699292e-01  -9.3664819206961436e-01  -9.3909087452030793e-01  -9.4127809909421423e-01  -9.4364421817233068e-01  -9.4588670280851683e-01  -9.4807906222015215e-01  -9.5041673885403544e-01  -9.5258682466459121e-01  -9.5507239822331957e-01  -9.5734380312914713e-01  -9.5977841701492117e-01  -9.6222056975844084e-01  -9.6449143491174361e-01  -9.6701269132579004e-01  -9.6920733966984662e-01  -9.7164606794819486e-01  -9.7396978117024791e-01  -9.7637086483335156e-01  -9.7887700416380263e-01  -9.8118569159828772e-01  -9.8379351603745602e-01  -9.8610868824528874e-01  -9.8862776187207269e-01  -9.9104850875905393e-01  -9.9337065159600479e-01  -9.9600129176853935e-01  -9.9822665724353699e-01  -1.0008676270617469e+00  -1.0031480586053243e+00  -1.0055663285857717e+00  -1.0079991277024272e+00  -1.0102092470044497e+00  -1.0126247163220110e+00  -1.0148162289553331e+00  -1.0172345780591534e+00  -1.0194898187398209e+00  -1.0217663644939039e+00  -1.0241906505182137e+00  -1.0262843543854505e+00  -1.0286626198594977e+00  -1.0308311458892883e+00  -1.0331702716096978e+00  -1.0354383038182973e+00  -1.0376134590081123e+00  -1.0400035242489765e+00  -1.0420523537415343e+00  -1.0444264618020265e+00  -1.0464935191463873e+00  -1.0486616774996174e+00  -1.0508486645307289e+00  -1.0528348890957533e+00  -1.0550651089661225e+00  -1.0570308946009439e+00  -1.0591535945510746e+00  -1.0611490568257469e+00  -1.0631012804918887e+00  -1.0651827582682856e+00  -1.0669697944426053e+00  -1.0691487396234227e+00  -1.0709055052642913e+00  -1.0729544798350987e+00  -1.0748163185859121e+00  -1.0766771620636053e+00  -1.0786682974234556e+00  -1.0803654316357356e+00  -1.0824020629922679e+00  -1.0840806923205981e+00  -1.0859796611321058e+00  -1.0876348146195116e+00  -1.0893058676096692e+00  -1.0910503886635914e+00  -1.0924218161153245e+00  -1.0941227187952518e+00  -1.0955337292576055e+00  -1.0969704211882820e+00  -1.0984649128761357e+00  -1.0997580413468691e+00  -1.1012590502159445e+00  -1.1024979810594779e+00  -1.1038898432168063e+00  -1.1051439949282493e+00  -1.1064039196908719e+00  -1.1077387557750997e+00  -1.1088917805996437e+00  -1.1100854280872501e+00  -1.1111273881234496e+00  -1.1121403527988538e+00  -1.1131944812515435e+00  -1.1141434597926145e+00  -1.1151383990549468e+00  -1.1159072160020889e+00  -1.1169079603059417e+00  -1.1176122283215792e+00  -1.1185070419877015e+00  -1.1193411179892732e+00  -1.1201072019057887e+00  -1.1209031542472370e+00  -1.1215484664605844e+00  -1.1222605919414408e+00  -1.1228310488997000e+00  -1.1234098432005417e+00  -1.1239464060718092e+00  -1.1243833833646601e+00  -1.1248522569146295e+00  -1.1252235908899864e+00  -1.1256046677618670e+00  -1.1258148037247961e+00  -1.1261885903328874e+00  -1.1264070496186778e+00  -1.1265861343522983e+00  -1.1267474949744849e+00  -1.1267364872452339e+00  -1.1268515191199515e+00  -1.1268409552915313e+00  -1.1268170231508632e+00  -1.1267888354810696e+00  -1.1267129291133093e+00  -1.1265890094481201e+00  -1.1263566359547248e+00  -1.1261187762903453e+00  -1.1258180555050947e+00  -1.1254969127367869e+00  -1.1251643762615531e+00  -1.1247792651779944e+00  -1.1243653931274189e+00  -1.1238574397714038e+00  -1.1233517961211603e+00  -1.1227648490421316e+00  -1.1221988396668372e+00  -1.1216184042612865e+00  -1.1208696276351271e+00  -1.1203030925116524e+00  -1.1195073750437516e+00  -1.1186934226943392e+00  -1.1179699527684872e+00  -1.1171117311699557e+00  -1.1163176721276167e+00  -1.1153527267674574e+00  -1.1144479358969739e+00  -1.1133952326304779e+00  -1.1124552613354044e+00  -1.1114295698556529e+00  -1.1102974675907422e+00  -1.1092310130861889e+00  -1.1080503050897790e+00  -1.1068569392587682e+00  -1.1056926750415959e+00  -1.1043042253156405e+00  -1.1030709566660031e+00  -1.1014965920181314e+00  -1.1001913084358841e+00  -1.0986332914389902e+00  -1.0972045112716831e+00  -1.0957857186236637e+00  -1.0942168171211093e+00  -1.0927181519750737e+00  -1.0910263331362744e+00  -1.0894411195327329e+00  -1.0877959465280087e+00  -1.0862085773891146e+00  -1.0846506811415790e+00  -1.0829255649008542e+00  -1.0813345918720865e+00  -1.0794500167058787e+00  -1.0777168615961092e+00  -1.0757776428304882e+00  -1.0738279748253778e+00  -1.0720105957562638e+00  -1.0699304918316046e+00  -1.0680368563664351e+00  -1.0659461132059771e+00  -1.0639092588391179e+00  -1.0618350419762252e+00  -1.0596838068403178e+00  -1.0577108617900415e+00  -1.0554724214047020e+00  -1.0534920488059774e+00  -1.0512686993792635e+00  -1.0491920882710588e+00  -1.0470969031959252e+00  -1.0448530450723392e+00  -1.0428437299203359e+00  -1.0405135279362223e+00  -1.0383976805254040e+00  -1.0361010645236728e+00  -1.0338267028538350e+00  -1.0315837659456977e+00  -1.0291291691591913e+00  -1.0269198863945663e+00  -1.0244800839692028e+00  -1.0222389389505695e+00  -1.0198557788259726e+00  -1.0175521054845693e+00  -1.0152773994173596e+00  -1.0128165200040342e+00  -1.0106453344839146e+00  -1.0080986414524711e+00  -1.0057874576379360e+00  -1.0034491586667087e+00  -1.0009329582010911e+00  -9.9864291544975958e-01  -9.9608089015757040e-01  -9.9377940171502144e-01  -9.9132678980380196e-01  -9.8892292109984659e-01  -9.8664111754853601e-01  -9.8413980604884188e-01  -9.8190808394858975e-01  -9.7938285118048263e-01  -9.7710494106940371e-01  -9.7471911391467470e-01  -9.7222661518561793e-01  -9.6996309396455949e-01  -9.6741729565442092e-01  -9.6518015558163073e-01  -9.6273951307379768e-01  -9.6037823455576521e-01  -9.5810838709171253e-01  -9.5562338825715221e-01  -9.5337912458474439e-01  -9.5085479310352927e-01  -9.4868309537779760e-01  -9.4627403404300614e-01  -9.4400888537420891e-01  -9.4181409485674428e-01  -9.3943141392148743e-01  -9.3734755554707194e-01  -9.3502548835110022e-01  -9.3289456722664232e-01  -9.3076795274198332e-01  -9.2862187820330255e-01  -9.2663862108845585e-01  -9.2441282223102395e-01  -9.2251635456317393e-01  -9.2039289577557337e-01  -9.1838544009766465e-01  -9.1653866238591519e-01  -9.1447037750553350e-01  -9.1268503707325055e-01  -9.1063020481521673e-01  -9.0880008075233298e-01  -9.0688114328861935e-01  -9.0508698005594002e-01  -9.0334325705859375e-01  -9.0147370056939302e-01  -8.9996346022998053e-01  -8.9810410679206742e-01  -8.9654143932771058e-01  -8.9489415169819686e-01  -8.9330760513759933e-01  -8.9180146725425857e-01  -8.9018544228591567e-01  -8.8877195443070334e-01  -8.8725576548101037e-01  -8.8592523161743997e-01  -8.8455448601304310e-01  -8.8313270818202716e-01  -8.8202046091980923e-01  -8.8055199698573838e-01  -8.7943600980880610e-01  -8.7813452845835061e-01  -8.7709505737414406e-01  -8.7596087912213461e-01  -8.7491371404518248e-01  -8.7399216491375542e-01  -8.7295104105415133e-01  -8.7215477601416036e-01  -8.7119765843424801e-01  -8.7030708377140664e-01  -8.6967925604559637e-01  -8.6875555236737145e-01  -8.6822574079290238e-01  -8.6740972887230161e-01  -8.6693270830285318e-01  -8.6629619913092948e-01  -8.6580273151715093e-01  -8.6538480780512317e-01  -8.6495687558741363e-01  -8.6470843219471383e-01  -8.6433690884320369e-01  -8.6408729251762828e-01  -8.6387204431509756e-01  -8.6365491764492464e-01  -8.6352297449906534e-01  -8.6338842875131538e-01  -8.6339167320825450e-01  -8.6333948963918927e-01  -8.6343054598815971e-01  -8.6352737221322284e-01  -8.6367571588170911e-01  -8.6394290659280792e-01  -8.6415323591302329e-01  -8.6453592738270868e-01  -8.6488024162515131e-01  -8.6529908178814008e-01  -8.6567733420767801e-01  -8.6612127242734616e-01  -8.6671646625755372e-01  -8.6715075340407999e-01  -8.6791870549914274e-01  -8.6847920044636240e-01  -8.6928122890271420e-01  -8.7001793005588623e-01  -8.7086622560294502e-01  -8.7167298297968787e-01  -8.7250049722017975e-01  -8.7340265465710742e-01  -8.7438898024079026e-01  -8.7545123181299134e-01  -8.7650677560349155e-01  -8.7755758112868842e-01  -8.7879983464192357e-01  -8.7981460028603553e-01  -8.8113576621859591e-01  -8.8234456978751086e-01  -8.8372155258923912e-01  -8.8512507743327284e-01  -8.8654377330789746e-01  -8.8807211196279079e-01  -8.8937086840288471e-01  -8.9077627408066495e-01  -8.9218816507573495e-01  -8.9368621491942857e-01  -8.9549088951234523e-01  -8.9701621459492309e-01  -8.9893835224779151e-01  -9.0057987863543021e-01  -9.0245880858002836e-01  -9.0424297374709917e-01  -9.0601739226368172e-01  -9.0802102708728394e-01  -9.0974969447421938e-01  -9.1180533024556532e-01  -9.1363724251961864e-01  -9.1563340229378176e-01  -9.1771799805975773e-01  -9.1960239402279842e-01  -9.2182534994273779e-01  -9.2379484998638184e-01  -9.2598290699124941e-01  -9.2805124094827185e-01  -9.3012382644805569e-01  -9.3242463756895611e-01  -9.3447944310455866e-01  -9.3678291777876976e-01  -9.3888009569166575e-01  -9.4110982792252540e-01  -9.4330700759008856e-01  -9.4541965587971666e-01  -9.4771095708452946e-01  -9.4978171446256687e-01  -9.5213336484310129e-01  -9.5426155382707245e-01  -9.5659054278556055e-01  -9.5887355457326928e-01  -9.6104027891450006e-01  -9.6343014921675729e-01  -9.6566409931870401e-01  -9.6812197822090806e-01  -9.7039786868816658e-01  -9.7281111894464745e-01  -9.7524930982703817e-01  -9.7749565714460018e-01  -9.7998758339109759e-01  -9.8230372384997755e-01  -9.8482510967655523e-01  -9.8736465292793274e-01  -9.8973974027868938e-01  -9.9239699528364589e-01  -9.9479901209412813e-01  -9.9731546536117766e-01  -9.9972483013270963e-01  -1.0020411793432755e+00  -1.0046006824941542e+00  -1.0068444516713260e+00  -1.0094626086736438e+00  -1.0117683207110630e+00  -1.0142255351214096e+00  -1.0165941070683204e+00  -1.0188702979035384e+00  -1.0213343333334559e+00  -1.0234904320230296e+00  -1.0259632005631782e+00  -1.0281598502019664e+00  -1.0304912499928869e+00  -1.0328804828650695e+00  -1.0350756092743070e+00  -1.0374978106720318e+00  -1.0396594166936168e+00  -1.0419339687527236e+00  -1.0441155357524921e+00  -1.0462528569152603e+00  -1.0484721491823377e+00  -1.0504626761990856e+00  -1.0526795839650365e+00  -1.0546848445317287e+00  -1.0568044458593002e+00  -1.0588586823621964e+00  -1.0608275724660179e+00  -1.0629944542725775e+00  -1.0648382839360890e+00  -1.0669833449193236e+00  -1.0689153354861896e+00  -1.0708480457236134e+00  -1.0728242396292311e+00  -1.0745981404282747e+00  -1.0765518131632510e+00  -1.0782830396434271e+00  -1.0801271140077831e+00  -1.0818775330912269e+00  -1.0835718661637206e+00  -1.0852938616269847e+00  -1.0869182270671029e+00  -1.0886724829254111e+00  -1.0902317320898198e+00  -1.0918699452655551e+00  -1.0934826202261063e+00  -1.0949718214810948e+00  -1.0965803312682385e+00  -1.0979764000278893e+00  -1.0995196360269870e+00  -1.1008917033155592e+00  -1.1022960109372795e+00  -1.1035629688517086e+00  -1.1048543200810343e+00  -1.1061999183839608e+00  -1.1073916590329986e+00  -1.1085973518578718e+00  -1.1097555878846384e+00  -1.1108238070047383e+00  -1.1119599502917275e+00  -1.1129547926760555e+00  -1.1140301345183805e+00  -1.1148799948860502e+00  -1.1159076794773211e+00  -1.1168211305617750e+00  -1.1176598110813245e+00  -1.1185925193529733e+00  -1.1192591633969515e+00  -1.1201484758299194e+00  -1.1207902397769871e+00  -1.1214830342027000e+00  -1.1220640209412962e+00  -1.1226505022491744e+00  -1.1232469022504283e+00  -1.1237358600100729e+00  -1.1242286863264856e+00  -1.1245373234756653e+00  -1.1249779606802919e+00  -1.1252931898758860e+00  -1.1255604875395162e+00  -1.1258774667533562e+00  -1.1261007477347977e+00  -1.1263084283283251e+00  -1.1264951778891232e+00  -1.1265286711391838e+00  -1.1267634429551425e+00  -1.1267997950647883e+00  -1.1268654100679933e+00  -1.1268391830874138e+00  -1.1267531926136429e+00  -1.1265371784103544e+00  -1.1264195234877408e+00  -1.1261129329718682e+00  -1.1259197542078130e+00  -1.1256369917529456e+00  -1.1252678459795298e+00  -1.1250581841609846e+00  -1.1246793110479794e+00  -1.1241990075087189e+00  -1.1238060895437321e+00  -1.1232185815210154e+00  -1.1226486073470510e+00  -1.1220005679844529e+00  -1.1212885196533120e+00  -1.1206765307261666e+00  -1.1199390511029312e+00  -1.1191882416292560e+00  -1.1183706340882742e+00  -1.1175487851583674e+00  -1.1166128191585905e+00  -1.1157373803926391e+00  -1.1147408602335451e+00  -1.1137805486303805e+00  -1.1127694087918898e+00  -1.1116629137362035e+00  -1.1105132033998566e+00  -1.1094251876914447e+00  -1.1082994508628257e+00  -1.1070961018461256e+00  -1.1058275527740848e+00  -1.1045879142484902e+00  -1.1032252023431011e+00  -1.1019085734755303e+00  -1.1005892261310302e+00  -1.0990299867055062e+00  -1.0977265135248737e+00  -1.0961191255838543e+00  -1.0947444921584486e+00  -1.0930880781748915e+00  -1.0916003967046166e+00  -1.0899387524809383e+00  -1.0882663743818872e+00  -1.0866901453114084e+00  -1.0848545107787775e+00  -1.0832975823950033e+00  -1.0814087743479366e+00  -1.0796795059684663e+00  -1.0778692343941181e+00  -1.0759541733696543e+00  -1.0741671812404094e+00  -1.0721730635009745e+00  -1.0702506859109557e+00  -1.0683185525511882e+00  -1.0663497376877036e+00  -1.0644955380843701e+00  -1.0623189031005620e+00  -1.0603320970664896e+00  -1.0582133258255080e+00  -1.0562102809308538e+00  -1.0540584778948643e+00  -1.0519126169938104e+00  -1.0498988833897165e+00  -1.0475632041041774e+00  -1.0455068322482710e+00  -1.0432558152427163e+00  -1.0411029235958242e+00  -1.0388688827868791e+00  -1.0365449928485166e+00  -1.0343715173250041e+00  -1.0319569436612379e+00  -1.0298265280929306e+00  -1.0274679746746596e+00  -1.0252460010943760e+00  -1.0229867995296997e+00  -1.0205618693323388e+00  -1.0183796120009871e+00  -1.0158510385872401e+00  -1.0135677112958583e+00  -1.0111093042296615e+00  -1.0086944484831000e+00  -1.0063737028882935e+00  -1.0038867854255931e+00  -1.0016823899281815e+00  -9.9914149617916492e-01  -9.9683230619387997e-01  -9.9443240690779300e-01  -9.9191128108116999e-01  -9.8962667465464560e-01  -9.8706248014097231e-01  -9.8478469542370373e-01  -9.8227888147555831e-01  -9.7996339180409198e-01  -9.7758045108280467e-01  -9.7506779146674849e-01  -9.7275647597044423e-01  -9.7023838496443426e-01  -9.6801837479759356e-01  -9.6565310358875034e-01  -9.6323433982167661e-01  -9.6100261529526465e-01  -9.5851258736923051e-01  -9.5628