<?xml version="1.0"?>
<VTKFile type="UnstructuredGrid"  version="0.1"  >
<UnstructuredGrid>
<Piece  NumberOfPoints="4278" NumberOfCells="6772">
<Points>
<DataArray  type="Float64"  NumberOfComponents="3"  format="ascii">0 0.01 0  10 0.01 0  0 1.019573477143549 0  10 1.019573477143549 0  0.007129524987038337 0.009997491741717768 0  0.01258064459049757 0.00999219056738478 0  0.01872173241756402 0.009982708334120727 0  0.02429919625640796 0.009970876572043954 0  0.03017238705920286 0.009955108531615313 0  0.03612352734296466 0.0099356743715591 0  0.04164979236492252 0.009914517792428084 0  0.04780928449023854 0.009887415768096998 0  0.05327287671237849 0.009860276931383746 0  0.0593436395885565 0.009826715421083503 0  0.06505608699933001 0.009791870631895848 0  0.07077243060783153 0.009753845329312128 0  0.07684085351634186 0.009710036052663748 0  0.08230528612367993 0.009667566921662384 0  0.08846525752759338 0.009616276826848907 0  0.09398926586603956 0.0095672187064786 0  0.09994377871281757 0.009511110804477986 0  0.10581288515308 0.009452550633355501 0  0.1113930001121819 0.009393893683773193 0  0.1175326299024069 0.009326020378011352 0  0.122983161250664 0.009262856809916281 0  0.1290978349347763 0.009188765415777931 0  0.1347300222736412 0.00911751981665075 0  0.1405327472005438 0.009041131768776852 0  0.1465421455697866 0.008958856277281909 0  0.1520341809431761 0.008880870879718691 0  0.1581991754706344 0.00879018143976357 0  0.1636834803794234 0.008706732874359017 0  0.1697073563005918 0.008612096527554045 0  0.1754901396361989 0.008518345936558386 0  0.1811391035120075 0.008424050210098115 0  0.1872444279222087 0.00831915423323064 0  0.1926961446341008 0.008222899998379215 0  0.198841090009393 0.008111516418624823 0  0.2044064770158165 0.008008028244452866 0  0.2102948627703611 0.007895869216798803 0  0.2162299794791283 0.007780085801116003 0  0.2217647046821167 0.007669675498109103 0  0.2279204403470532 0.007544154739747676 0  0.2333791472114919 0.007430485124751003 0  0.2394590817234977 0.0073013084386626 0  0.245152498789355 0.007177928079207972 0  0.2508861115607116 0.007051356111670669 0  0.2569419868439766 0.006915186417023598 0  0.2624099649457279 0.006790084113692359 0  0.2685711825796066 0.006646722567663751 0  0.274083748205357 0.006516341894728842 0  0.2800541704182985 0.00637292855786236 0  0.2859022845836161 0.006230279166502627 0  0.291495955429921 0.006091868246150131 0  0.2976275706217687 0.005937986548763313 0  0.3030757324287757 0.005799406374294222 0  0.3091980118239236 0.005641654227187252 0  0.3148109405089491 0.005495191514879527 0  0.3206341933715942 0.005341435282378838 0  0.3266248575896781 0.005181393525330103 0  0.3321252080346692 0.005032833254881577 0  0.3382880718234609 0.004864596209960478 0  0.3437628463580178 0.004713611578807419 0  0.3498021006600692 0.004545443593512952 0  0.3555594631656461 0.004383601001460968 0  0.3612291099056053 0.004222822711549606 0  0.3673210805066339 0.004048576418709386 0  0.3727746135437823 0.003891330909934085 0  0.3789246700786391 0.003712634483246944 0  0.3844721023230384 0.00355025746928806 0  0.3903845048135511 0.003376011435332509 0  0.3962935688476314 0.003200699755406988 0  0.4018430601204535 0.00303505085978487 0  0.4079921977692303 0.002850427660455144 0  0.4134449905916002 0.002685819499171436 0  0.4195385366679084 0.002500937932218923 0  0.425204482428441 0.002328206591247292 0  0.4309651825948974 0.00215183074136113 0  0.4370014133195289 0.001966263547608745 0  0.4424769325836848 0.00179732019881714 0  0.4486395183564056 0.001606544730410899 0  0.4541373275735043 0.001435838569361521 0  0.4601308451156257 0.001249254088784412 0  0.4659488863550298 0.001067707976620331 0  0.471564807260988 0.0008921302908496037 0  0.4776843759254726 0.0007004920228137959 0  0.4831317484445766 0.0005296836585198918 0  0.4892643513384632 0.0003372062279158936 0  0.4948528283485032 0.000161696161435303 0  0.5007056813361916 -2.216943068070812e-05 0  0.5066699093509902 -0.000209526046556915 0  0.5121845298566023 -0.0003826949545447442 0  0.5183439831944545 -0.0005759742926309219 0  0.5238088617282698 -0.0007472800272428554 0  0.5298681543527348 -0.0009369594486414562 0  0.5355929349139432 -0.001115856450691032 0  0.5412927239341832 -0.001293613669039852 0  0.5473668732672543 -0.001482588207084091 0  0.5528259073001393 -0.001651967505962102 0  0.5589819336317072 -0.001842386787779294 0  0.5645100189486582 -0.002012797049529044 0  0.5704524332663232 -0.002195301346534757 0  0.5763298911552834 -0.002375058665203144 0  0.5819006708717119 -0.002544689651648297 0  0.5880413281562127 -0.002730768313747055 0  0.5934904284812221 -0.002895042191696308 0  0.5995995320960693 -0.003078202338538874 0  0.605236779888003 -0.003246210954182579 0  0.6110299855290301 -0.003417806240976177 0  0.6170432999212266 -0.00359472323302265 0  0.6225307972792151 -0.00375505261922207 0  0.6286944373476531 -0.003933803567825084 0  0.6341794289295242 -0.004091634709336539 0  0.6401977648984302 -0.004263413669385436 0  0.6459846030577213 -0.004427148756161272 0  0.6516277670629291 -0.004585409549508515 0  0.6577342305863492 -0.004755038487876419 0  0.6631843111407589 -0.004904958327357115 0  0.6693271588517591 -0.005072208653571043 0  0.6748942591145469 -0.005222152905474348 0  0.6807781354428797 -0.005378892074409919 0  0.6867158102497221 -0.005535201343768038 0  0.6922478556369909 -0.005679100421160843 0  0.6984036264198542 -0.005837205328254034 0  0.7038624132928571 -0.005975584427524931 0  0.7099402809449575 -0.006127588021236129 0  0.7156361945945205 -0.006268012368771779 0  0.7213667017809595 -0.006407263887957157 0  0.7274241898103784 -0.006552202568912044 0  0.7328913375361901 -0.006680980644346233 0  0.7390522654079078 -0.006823736587757829 0  0.7445663161830813 -0.006949337256267011 0  0.7505345306161221 -0.007082931996795786 0  0.7563856967966242 -0.007211490056377221 0  0.7619775509571868 -0.007332073958440476 0  0.7681106054434813 -0.007461725199742056 0  0.7735594228940573 -0.007574589702563127 0  0.7796809699364847 -0.007698739982391196 0  0.7852974086111042 -0.007810142587226769 0  0.7911178568436495 -0.007923025648348906 0  0.797112403703894 -0.008036515862006795 0  0.8026119630288198 -0.008138129173272899 0  0.8087760180262171 -0.008249131188213875 0  0.814253500572072 -0.008345174877796967 0  0.8202905515677629 -0.008448166667805387 0  0.8260544286221699 -0.008543663134562481 0  0.831720415905675 -0.008634807324656511 0  0.8378167080097026 -0.008729817306667463 0  0.8432709709919499 -0.008812108559864256 0  0.8494209576248264 -0.008901791974276371 0  0.8549745826348545 -0.008979924427376591 0  0.8608814329347291 -0.009060026011188804 0  0.8667998142885592 -0.009137155111096256 0  0.8723460990452367 -0.009206568509458774 0  0.8784989383774584 -0.009280301817794542 0  0.8839552890388401 -0.009342788637451834 0  0.8900456692707091 -0.009409293585850673 0  0.8957233874467343 -0.009468190513990782 0  0.9014754209053449 -0.009524786393944277 0  0.9075213579987256 -0.009580921173179099 0  0.9129954731058688 -0.009628765913494807 0  0.9191593188847452 -0.009679229788646495 0  0.9246655330424429 -0.009721240864333262 0  0.9306503084472221 -0.009763603884533442 0  0.9364847200361547 -0.009801580348484516 0  0.9420914259676206 -0.009834972127394636 0  0.948219177636862 -0.009867976960504428 0  0.9536688877131657 -0.009894257783109666 0  0.9597979104438458 -0.009920349306153329 0  0.9654020314719589 -0.009940987600901847 0  0.9712398170272581 -0.009959209624459757 0  0.9772219132298864 -0.009974407121723252 0  0.9827297975109929 -0.009985285083248089 0  0.9888934840407251 -0.009993913310034224 0  0.9943667421923366 -0.009998434045983932 0  1.000414962337846 -0.009999991502249178 0  1.00616395254491 -0.009998125110441144 0  1.011844857354635 -0.009993077234903055 0  1.017933801412069 -0.009984132829796667 0  1.023390946643176 -0.00997301205183276 0  1.029544679732296 -0.009956955598792184 0  1.035089558108845 -0.009939300412459717 0  1.041010936359372 -0.009917116481575694 0  1.04691554237944 -0.00989157814857561 0  1.052471258615448 -0.009864440751261633 0  1.05862104751389 -0.009830897850136421 0  1.064075481579663 -0.009798076706746352 0  1.070173358231585 -0.009757978136698224 0  1.075837941143087 -0.00971752009646258 0  1.081604377355612 -0.009673173917302162 0  1.087640686528322 -0.009623351755525641 0  1.093119387704205 -0.009575135453199036 0  1.099284093826516 -0.009517491101966447 0  1.104783734376909 -0.009463052176492596 0  1.110779897618174 -0.009400480030121557 0  1.116599992234411 -0.00933655469875222 0  1.122217899723542 -0.009271889359757672 0  1.128339818747432 -0.009198135031144493 0  1.133789446190431 -0.00912961705214143 0  1.139923317158062 -0.009049295973540348 0  1.145515844317945 -0.008973134373133167 0  1.151367773813766 -0.008890475161473248 0  1.157336906671575 -0.008803064948780913 0  1.16285160438384 -0.008719557366803981 0  1.16901331600552 -0.008623157866544266 0  1.174481522907442 -0.00853490108265173 0  1.180539122189597 -0.008434191931863186 0  1.186271617394136 -0.008336073959344166 0  1.191966996821913 -0.008235914041393521 0  1.198046448076202 -0.008126091334838595 0  1.203505695906331 -0.008024945109277802 0  1.209661806077474 -0.007908057515838151 0  1.21519584913737 -0.007800455577732041 0  1.221132109188887 -0.00768241304184519 0  1.227019087412133 -0.007562711583992629 0  1.232585135446325 -0.007447155722966398 0  1.238729389023077 -0.007316953404904543 0  1.244180486899644 -0.007199156086382225 0  1.250286093435722 -0.007064709646262071 0  1.255932842016573 -0.006938052500145445 0  1.261716857103797 -0.006806053534187844 0  1.26773845151126 -0.006666245775332091 0  1.273222687278595 -0.006536836953056475 0  1.279386853652711 -0.00638906998029936 0  1.284876650734994 -0.006255450389977176 0  1.290887326898431 -0.00610702037198264 0  1.296685536664392 -0.00596177282270944 0  1.30231949087952 -0.005818744638503708 0  1.308431215520824
[...]
<PointData  Scalars="Pressure"> 
<DataArray  type="Float64"  Name="Pressure"  format="ascii">-1.1280729991790019e+00  -1.1280729991790019e+00  -9.1181027381999058e-01  -9.1181027381999058e-01  -1.1280018452449407e+00  -1.1279332169332363e+00  -1.1278398718842768e+00  -1.1276730359032872e+00  -1.1275237871545318e+00  -1.1271695947054889e+00  -1.1269917181814015e+00  -1.1265961977685741e+00  -1.1262543905279871e+00  -1.1258599822258457e+00  -1.1253631047806858e+00  -1.1250320028002825e+00  -1.1243890193332342e+00  -1.1239486223103567e+00  -1.1232695854810910e+00  -1.1226430548471305e+00  -1.1219570739959994e+00  -1.1211910353364831e+00  -1.1204548599483208e+00  -1.1195735635915789e+00  -1.1187718315813673e+00  -1.1178877153673046e+00  -1.1169769502560067e+00  -1.1160412735036644e+00  -1.1149429859544353e+00  -1.1140570502635041e+00  -1.1129749182084820e+00  -1.1119995569528183e+00  -1.1108427898383808e+00  -1.1096426598039240e+00  -1.1085503077931385e+00  -1.1072329942400088e+00  -1.1059538221847554e+00  -1.1046359339453686e+00  -1.1032526038782511e+00  -1.1019427075963755e+00  -1.1004226306717519e+00  -1.0991303816944613e+00  -1.0975513263483552e+00  -1.0960576844087222e+00  -1.0945586463294974e+00  -1.0929301803333131e+00  -1.0914580426946894e+00  -1.0896955743472314e+00  -1.0882085519598828e+00  -1.0864160216383558e+00  -1.0847389273618124e+00  -1.0829180070195681e+00  -1.0810577235294381e+00  -1.0794364196231079e+00  -1.0774724575810857e+00  -1.0756959403794386e+00  -1.0737378213531874e+00  -1.0718770893391418e+00  -1.0699665237945237e+00  -1.0678793587313049e+00  -1.0660662657354667e+00  -1.0638907425426529e+00  -1.0619236184724021e+00  -1.0598196724183506e+00  -1.0576779642408194e+00  -1.0556337498201602e+00  -1.0533963234836448e+00  -1.0513699954263107e+00  -1.0490495405646099e+00  -1.0469334154154508e+00  -1.0446937571703838e+00  -1.0424304495693553e+00  -1.0403266511354443e+00  -1.0379629606030616e+00  -1.0358118021690323e+00  -1.0334081052746564e+00  -1.0311380102455314e+00  -1.0288043128721933e+00  -1.0263932355860841e+00  -1.0242356803803052e+00  -1.0217158312013501e+00  -1.0194812305978387e+00  -1.0170063861816621e+00  -1.0146419993740525e+00  -1.0122737726673827e+00  -1.0097112463014670e+00  -1.0074606595303890e+00  -1.0049041104687129e+00  -1.0025734992050288e+00  -1.0001247001375626e+00  -9.9757915467206981e-01  -9.9529369904596676e-01  -9.9266546746837514e-01  -9.9035670072418946e-01  -9.8781731500598158e-01  -9.8541674629058174e-01  -9.8306161586385099e-01  -9.8052229720303796e-01  -9.7833751277698111e-01  -9.7581559069411916e-01  -9.7357718951602346e-01  -9.7114951120094006e-01  -9.6876777522203184e-01  -9.6652592586914965e-01  -9.6401937496120893e-01  -9.6176604022861778e-01  -9.5919710578628048e-01  -9.5688978719032458e-01  -9.5444535400868669e-01  -9.5197775950916474e-01  -9.4974325149429284e-01  -9.4728170736533213e-01  -9.4511524052703866e-01  -9.4273682870601594e-01  -9.4050638763856187e-01  -9.3830560749174352e-01  -9.3598817828056657e-01  -9.3392869086956765e-01  -9.3160764948480701e-01  -9.2961898057984071e-01  -9.2744417267652357e-01  -9.2542168713922912e-01  -9.2345302682112718e-01  -9.2123940557657680e-01  -9.1941334271287833e-01  -9.1736681204438353e-01  -9.1543108609797819e-01  -9.1348000477945734e-01  -9.1157662009495111e-01  -9.0971442745233755e-01  -9.0778417354395557e-01  -9.0603407490589261e-01  -9.0418556529604788e-01  -9.0228943900142888e-01  -9.0052966547382818e-01  -8.9862615359381992e-01  -8.9701539482190973e-01  -8.9523179237153017e-01  -8.9358714161696873e-01  -8.9196581862890234e-01  -8.9027902226173283e-01  -8.8879138541642289e-01  -8.8725451530405108e-01  -8.8594389923975447e-01  -8.8447408017499174e-01  -8.8313736727537095e-01  -8.8178489737591703e-01  -8.8046855034978988e-01  -8.7925599426721424e-01  -8.7798409074849504e-01  -8.7687110983479322e-01  -8.7570647965644499e-01  -8.7454935959690339e-01  -8.7352442755022330e-01  -8.7245037364146549e-01  -8.7156127256862337e-01  -8.7062108237552183e-01  -8.6980141654865606e-01  -8.6898979729113468e-01  -8.6832619684027246e-01  -8.6758637129309424e-01  -8.6686834122821788e-01  -8.6628849222667481e-01  -8.6567635728175130e-01  -8.6514727256238566e-01  -8.6468015641560303e-01  -8.6423509823368272e-01  -8.6387451460665865e-01  -8.6350366159460845e-01  -8.6321195419795371e-01  -8.6290354211653431e-01  -8.6278216824044562e-01  -8.6255082776643210e-01  -8.6242796839383107e-01  -8.6235452939472579e-01  -8.6229145933208451e-01  -8.6228275132687182e-01  -8.6232458567173165e-01  -8.6244548872374194e-01  -8.6257056415461597e-01  -8.6278941723253733e-01  -8.6303944530610910e-01  -8.6331157568092010e-01  -8.6377931573335753e-01  -8.6408128501142789e-01  -8.6456488363877260e-01  -8.6503808984157493e-01  -8.6559053247035767e-01  -8.6616300775141675e-01  -8.6678844473466932e-01  -8.6751543260406572e-01  -8.6827386319117916e-01  -8.6903730423365633e-01  -8.6987706686920874e-01  -8.7079945296790973e-01  -8.7174163472939659e-01  -8.7266880593687990e-01  -8.7382931753900994e-01  -8.7475967080630590e-01  -8.7592522071376966e-01  -8.7698946041795434e-01  -8.7815382230357475e-01  -8.7937502664015388e-01  -8.8058991135194020e-01  -8.8193233232253032e-01  -8.8318894874644838e-01  -8.8463258117877941e-01  -8.8599934361187771e-01  -8.8744365965545413e-01  -8.8906330080600504e-01  -8.9048588687785002e-01  -8.9217087454831834e-01  -8.9370509179243107e-01  -8.9541436976679756e-01  -8.9706489284681834e-01  -8.9869997425836823e-01  -9.0049631071353897e-01  -9.0215765598321940e-01  -9.0409949141402235e-01  -9.0585253744924943e-01  -9.0765725638557126e-01  -9.0959935825915383e-01  -9.1130434217479983e-01  -9.1333351581157474e-01  -9.1515998343272631e-01  -9.1717228360074654e-01  -9.1914907377036170e-01  -9.2107035784606095e-01  -9.2327293193525151e-01  -9.2519486145581920e-01  -9.2748401117774781e-01  -9.2951833509446058e-01  -9.3172125811446138e-01  -9.3400760087842982e-01  -9.3610122243713567e-01  -9.3856332763025674e-01  -9.4076773722021612e-01  -9.4315304021893243e-01  -9.4541348814783299e-01  -9.4762385307603336e-01  -9.4998077250695867e-01  -9.5216837933070941e-01  -9.5467428029037116e-01  -9.5696418954619733e-01  -9.5941858761796195e-01  -9.6188058080215233e-01  -9.6416998953481481e-01  -9.6671194790775605e-01  -9.6892467470312649e-01  -9.7138360434191329e-01  -9.7372671158694502e-01  -9.7614792689880647e-01  -9.7867480699529652e-01  -9.8100299257134549e-01  -9.8363270096869282e-01  -9.8596695867396233e-01  -9.8850824011750504e-01  -9.9094819137563372e-01  -9.9329239773525935e-01  -9.9594232598177779e-01  -9.9818803264087397e-01  -1.0008493817301904e+00  -1.0031492122909700e+00  -1.0055867991038854e+00  -1.0080401808323423e+00  -1.0102688601739456e+00  -1.0127036722863070e+00  -1.0149149214836528e+00  -1.0173522792376797e+00  -1.0196260653731255e+00  -1.0219216362875769e+00  -1.0243674363479698e+00  -1.0264781634406441e+00  -1.0288763825219731e+00  -1.0310646772549337e+00  -1.0334257704149514e+00  -1.0357148848812745e+00  -1.0379099692015881e+00  -1.0403228653613557e+00  -1.0423901634009871e+00  -1.0447880374407810e+00  -1.0468747890080821e+00  -1.0490651448056891e+00  -1.0512737712643596e+00  -1.0532790762881943e+00  -1.0555307454356861e+00  -1.0575166300330689e+00  -1.0596610447448112e+00  -1.0616763461888732e+00  -1.0636480390419862e+00  -1.0657494187289163e+00  -1.0675527766974953e+00  -1.0697514003107169e+00  -1.0715246656756603e+00  -1.0735919671852285e+00  -1.0754715386537694e+00  -1.0773488303753771e+00  -1.0793591442325510e+00  -1.0810737670778261e+00  -1.0831286845316639e+00  -1.0848255526597641e+00  -1.0867423620801031e+00  -1.0884181061758205e+00  -1.0901088696641872e+00  -1.0918747758143339e+00  -1.0932714184411976e+00  -1.0949812261751706e+00  -1.0964086081374715e+00  -1.0978702534673819e+00  -1.0993739969872660e+00  -1.1007102354863867e+00  -1.1021704599320181e+00  -1.1034081355988392e+00  -1.1047950975593543e+00  -1.1060603698629057e+00  -1.1073347478038136e+00  -1.1086885983220747e+00  -1.1098519767997796e+00  -1.1110894024838827e+00  -1.1121702340012243e+00  -1.1132244596806722e+00  -1.1143224883124252e+00  -1.1152825908662967e+00  -1.1162820486207858e+00  -1.1170528796417603e+00  -1.1180267207627896e+00  -1.1187208736877277e+00  -1.1195964169407062e+00  -1.1204032128073345e+00  -1.1210984678944123e+00  -1.1218901783721078e+00  -1.1225406774138367e+00  -1.1233149646611327e+00  -1.1238653524522619e+00  -1.1244379148988335e+00  -1.1249301266508549e+00  -1.1253604555946926e+00  -1.1258344532186140e+00  -1.1262271576793697e+00  -1.1266063846889018e+00  -1.1268410657646668e+00  -1.1271833724939293e+00  -1.1273936078915312e+00  -1.1275960381346508e+00  -1.1277977520779359e+00  -1.1278588994617311e+00  -1.1280227378169223e+00  -1.1280972137105829e+00  -1.1280976215886906e+00  -1.1280100076384474e+00  -1.1278495073275312e+00  -1.1276461092431702e+00  -1.1274075052657664e+00  -1.1271127304783173e+00  -1.1269374233688332e+00  -1.1266266753410610e+00  -1.1263218588844361e+00  -1.1259260187587388e+00  -1.1255142071957487e+00  -1.1249480761135640e+00  -1.1244881670747056e+00  -1.1238662670982593e+00  -1.1233359455083081e+00  -1.1227768065651689e+00  -1.1221075511945984e+00  -1.1216030674168711e+00  -1.1208362128627805e+00  -1.1199902429604167e+00  -1.1193124414339992e+00  -1.1183768420996854e+00  -1.1175397628910599e+00  -1.1165497876178108e+00  -1.1155330398359886e+00  -1.1145286424470298e+00  -1.1134341949262279e+00  -1.1123227460529763e+00  -1.1111591371720553e+00  -1.1100793445165351e+00  -1.1088748663251360e+00  -1.1077472015661036e+00  -1.1064734198766990e+00  -1.1052062069904376e+00  -1.1039250950219597e+00  -1.1024402632516308e+00  -1.1011912211465218e+00  -1.0996134930017569e+00  -1.0980948145852041e+00  -1.0965833255213320e+00  -1.0949119221481312e+00  -1.0933408504318058e+00  -1.0916032595939620e+00  -1.0900215415413830e+00  -1.0883688595914645e+00  -1.0867161883812351e+00  -1.0850461192151983e+00  -1.0832656068174122e+00  -1.0815800569885339e+00  -1.0796858738579505e+00  -1.0779587636666081e+00  -1.0760576651217544e+00  -1.0741619822559252e+00  -1.0724033438142393e+00  -1.0702789918792415e+00  -1.0685281935836910e+00  -1.0663721807887721e+00  -1.0644640319958105e+00  -1.0624357952865544e+00  -1.0603776038972972e+00  -1.0583952475595142e+00  -1.0561810649639254e+00  -1.0541953816646159e+00  -1.0519630955143897e+00  -1.0499350507889105e+00  -1.0478047552481082e+00  -1.0455040764871057e+00  -1.0433596093828579e+00  -1.0409820597831474e+00  -1.0387717936968253e+00  -1.0364138021976419e+00  -1.0340957331859777e+00  -1.0318830922230280e+00  -1.0294312951172502e+00  -1.0272393233779484e+00  -1.0247888263355240e+00  -1.0225010256403759e+00  -1.0201200148746956e+00  -1.0176733354158514e+00  -1.0154565764153771e+00  -1.0128915790046722e+00  -1.0105575214728142e+00  -1.0080509117929344e+00  -1.0057175077714016e+00  -1.0033735378722120e+00  -1.0008990582856976e+00  -9.9864116180628859e-01  -9.9607038740879361e-01  -9.9374503224739563e-01  -9.9126353448946736e-01  -9.8882952122445322e-01  -9.8649585513559068e-01  -9.8396572037692820e-01  -9.8170037089755602e-01  -9.7914402756217300e-01  -9.7679779554256507e-01  -9.7437124398386266e-01  -9.7181417169139028e-01  -9.6952513733279433e-01  -9.6696611910361485e-01  -9.6470336078425367e-01  -9.6221627257840536e-01  -9.5983326992353768e-01  -9.5748220093047720e-01  -9.5502282283645878e-01  -9.5281873647822990e-01  -9.5031538197896182e-01  -9.4816795972511658e-01  -9.4575814900641719e-01  -9.4341721940133516e-01  -9.4124002271624918e-01  -9.3879515247531531e-01  -9.3672867179319208e-01  -9.3444669052351659e-01  -9.3230903294201550e-01  -9.3016021700303408e-01  -9.2794934411476626e-01  -9.2595905446894955e-01  -9.2370756837489776e-01  -9.2186089228946388e-01  -9.1972822664438125e-01  -9.1773765986864853e-01  -9.1584395320946910e-01  -9.1376608529856418e-01  -9.1204102346938620e-01  -9.0998948389431278e-01  -9.0821507201715901e-01  -9.0637700543763366e-01  -9.0452304197157474e-01  -9.0281226051964003e-01  -9.0092501844762929e-01  -8.9940226413612112e-01  -8.9755816200876337e-01  -8.9607094461770176e-01  -8.9435018620657092e-01  -8.9271544100810296e-01  -8.9116375193484487e-01  -8.8944850108390994e-01  -8.8796682964024354e-01  -8.8635872659705095e-01  -8.8484733398569648e-01  -8.8346227146532730e-01  -8.8197240900289309e-01  -8.8079116188881179e-01  -8.7932166872426132e-01  -8.7822765667082614e-01  -8.7691166393674369e-01  -8.7582692409906038e-01  -8.7469866552549225e-01  -8.7354596260085937e-01  -8.7261711816760468e-01  -8.7157381716883331e-01  -8.7070075641416023e-01  -8.6981146701114054e-01  -8.6901088802745707e-01  -8.6838679689129306e-01  -8.6768484727823525e-01  -8.6709819142993050e-01  -8.6645016360558724e-01  -8.6586271358190559e-01  -8.6541631166862110e-01  -8.6491353653617864e-01  -8.6454766469058697e-01  -8.6413928460875455e-01  -8.6375519699184344e-01  -8.6342757007408699e-01  -8.6308291680106064e-01  -8.6290615618616062e-01  -8.6263993282236340e-01  -8.6264948901450866e-01  -8.6239556343708346e-01  -8.6254904082644368e-01  -8.6245366287113956e-01  -8.6256267193438974e-01  -8.6266952341077119e-01  -8.6282810451705760e-01  -8.6303969053405671e-01  -8.6324390681385899e-01  -8.6348312781974823e-01  -8.6372071624420177e-01  -8.6400443476869515e-01  -8.6440270890893267e-01  -8.6468915607240848e-01  -8.6524630842167560e-01  -8.6564694199584435e-01  -8.6629584315816233e-01  -8.6688337996572884e-01  -8.6769991633361554e-01  -8.6838062500347968e-01  -8.6932052401278981e-01  -8.7028029029167053e-01  -8.7116608097650916e-01  -8.7233209379167032e-01  -8.7328820589330891e-01  -8.7446261188845775e-01  -8.7560766103576704e-01  -8.7666900802904302e-01  -8.7793907257934978e-01  -8.7911993903231234e-01  -8.8038088977800666e-01  -8.8168262356858895e-01  -8.8294803620305828e-01  -8.8438270733495239e-01  -8.8576336486928609e-01  -8.8727775643612306e-01  -8.8866482784269907e-01  -8.9024318024379800e-01  -8.9169950443308910e-01  -8.9325647560794930e-01  -8.9496879862189527e-01  -8.9646250208775291e-01  -8.9826905209112984e-01  -8.9990065933445063e-01  -9.0166495931811519e-01  -9.0342040960349068e-01  -9.0514794110573815e-01  -9.0704989585671603e-01  -9.0879670566021287e-01  -9.1079504557361890e-01  -9.1267079934919892e-01  -9.1467778415401091e-01  -9.1677419594187337e-01  -9.1866691725202421e-01  -9.2088360714131934e-01  -9.2283727976581242e-01  -9.2495178254369337e-01  -9.2702171113645271e-01  -9.2908366677030907e-01  -9.3131363854548732e-01  -9.3333906318153481e-01  -9.3567366707763955e-01  -9.3774675865768942e-01  -9.4004122068689422e-01  -9.4232094726809101e-01  -9.4447018276889261e-01  -9.4694008237826555e-01  -9.4915550735224996e-01  -9.5159225167935446e-01  -9.5391262720705006e-01  -9.5632064279996765e-01  -9.5872528767645360e-01  -9.6095044233952043e-01  -9.6342657365888018e-01  -9.6562900634066173e-01  -9.6818595936570007e-01  -9.7059928050475630e-01  -9.7298927256314993e-01  -9.7560268583173737e-01  -9.7791843848472970e-01  -9.8052941749943390e-01  -9.8289455397878822e-01  -9.8536073608664010e-01  -9.8780992284482794e-01  -9.9013198363597765e-01  -9.9271477255232343e-01  -9.9498813024037469e-01  -9.9750875508477599e-01  -9.9985054633945114e-01  -1.0022143322060242e+00  -1.0047657897131275e+00  -1.0070099897732139e+00  -1.0095768833040142e+00  -1.0118083464694245e+00  -1.0141557467405042e+00  -1.0164738873685064e+00  -1.0187218571842005e+00  -1.0211866437706594e+00  -1.0234255701184878e+00  -1.0259351982929823e+00  -1.0282349398960666e+00  -1.0306025254969680e+00  -1.0329800529705275e+00  -1.0351337018028950e+00  -1.0375465717115553e+00  -1.0396808227182279e+00  -1.0420251255175743e+00  -1.0442484671524879e+00  -1.0464597261141664e+00  -1.0487175298900480e+00  -1.0507028221721204e+00  -1.0529891299626983e+00  -1.0549138034131560e+00  -1.0571060972451536e+00  -1.0591560237504796e+00  -1.0611911210444926e+00  -1.0634271607364749e+00  -1.0653007388131808e+00  -1.0675420885338160e+00  -1.0694229790829934e+00  -1.0714823082294480e+00  -1.0734429538403238e+00  -1.0753144503743752e+00  -1.0773344129681175e+00  -1.0790367505527285e+00  -1.0810081636092181e+00  -1.0827158877231795e+00  -1.0844910823999858e+00  -1.0863050088847885e+00  -1.0879216337788700e+00  -1.0897157663012778e+00  -1.0911966212499409e+00  -1.0928826244490262e+00  -1.0944753359179926e+00  -1.0959543936342981e+00  -1.0975405120106163e+00  -1.0989135796473299e+00  -1.1004102629430748e+00  -1.1017935879982568e+00  -1.1031360042231901e+00  -1.1045410183634619e+00  -1.1057912928771814e+00  -1.1071254710894898e+00  -1.1082252255472191e+00  -1.1095558932599294e+00  -1.1106033042939307e+00  -1.1117717494574983e+00  -1.1129075076257791e+00  -1.1139035834568967e+00  -1.1149733655361238e+00  -1.1159069329392470e+00  -1.1168853319451408e+00  -1.1177479017907357e+00  -1.1186394141617073e+00  -1.1195338035362505e+00  -1.1203005244053226e+00  -1.1211268893054054e+00  -1.1217679265859486e+00  -1.1225766572765170e+00  -1.1231250763731158e+00  -1.1237959992350319e+00  -1.1243738482055099e+00  -1.1248486439916860e+00  -1.1253415179288426e+00  -1.1257650681006954e+00  -1.1261737089275179e+00  -1.1266043271535944e+00  -1.1268084121144319e+00  -1.1272770848525906e+00  -1.1273319928935783e+00  -1.1276558234697505e+00  -1.1277930593574477e+00  -1.1278283994272891e+00  -1.1279960968780673e+00  -1.1278846679517212e+00  -1.1280005824132000e+00  -1.1278003356678186e+00  -1.1278123673522946e+00  -1.1276324283443484e+00  -1.1273746986761746e+00  -1.1272273326693183e+00  -1.1269296665776440e+00  -1.1266961945597531e+00  -1.1262982406491884e+00  -1.1260092280625551e+00  -1.1256032803887437e+00  -1.1251612979901715e+00  -1.1246866560748199e+00  -1.1240791949743376e+00  -1.1236342969265591e+00  -1.1228962950316184e+00  -1.1224166346519511e+00  -1.1216833296696052e+00  -1.1209517812659844e+00  -1.1201538075030155e+00  -1.1193084332558374e+00  -1.1185104899231164e+00  -1.1176083610726444e+00  -1.1166970515614858e+00  -1.1157962919687201e+00  -1.1147797873269576e+00  -1.1137549805679949e+00  -1.1126373940489820e+00  -1.1115121811111766e+00  -1.1103993471145790e+00  -1.1091281606710042e+00  -1.1079598771640848e+00  -1.1066526091842528e+00  -1.1054689756528375e+00  -1.1040955873624883e+00  -1.1028544893668688e+00  -1.1014370553068125e+00  -1.1000711475742111e+00  -1.0986430603650639e+00  -1.0971290164863245e+00  -1.0957065485218869e+00  -1.0940851401352467e+00  -1.0925826104164351e+00  -1.0908942617052955e+00  -1.0892393705435801e+00  -1.0875622113002563e+00  -1.0856544734269777e+00  -1.0840150372145523e+00  -1.0820237972488356e+00  -1.0802154986914232e+00  -1.0782946168046794e+00  -1.0763721025852815e+00  -1.0745891576249194e+00  -1.0725704165419818e+00  -1.0707549904440796e+00  -1.0687202617818676e+00  -1.0667821023292252e+00  -1.0648423068565342e+00  -1.0627918125259688e+00  -1.0609047576989632e+00  -1.0587950414306238e+00  -1.0568639748907098e+00  -1.0547198842507821e+00  -1.0526156915330536e+00  -1.0505633442110625e+00  -1.0482266759585464e+00  -1.0461230011081897e+00  -1.0437901295560517e+00  -1.0415817113248815e+00  -1.0392783981554143e+00  -1.0369298757257777e+00  -1.0347479856089792e+00  -1.0322837422869073e+00  -1.0300882938568847e+00  -1.0276096709450495e+00  -1.0253631181240004e+00  -1.0229485792762258e+00  -1.0206514760493228e+00  -1.0184267863880916e+00  -1.0159987494519875e+00  -1.0137122929358351e+00  -1.0112587894099998e+00  -1.0088536119427931e+00  -1.0065232901741299e+00  -1.0040044448267607e+00  -1.0017603652154512e+00  -9.9916505145507950e-01  -9.9682686163705858e-01  -9.9436840685018635e-01  -9.9179622664504585e-01  -9.8944146241486131e-01  -9.8681542309297121e-01  -9.8453476866970857e-01  -9.8202503105262640e-01  -9.7959587991232866e-01  -9.7722717467506026e-01  -9.7464987614792831e-01  -9.7240182376286965e-01  -9.6984026229956199e-01  -9.6762473553351525e-01  -9.6515062331764290e-01  -9.6267180078585568e-01  -9.6041252544171474e-01  -9.5781658697952921e-01  -9.5560