<?xml version="1.0"?>
<VTKFile type="UnstructuredGrid"  version="0.1"  >
<UnstructuredGrid>
<Piece  NumberOfPoints="4252" NumberOfCells="6720">
<Points>
<DataArray  type="Float64"  NumberOfComponents="3"  format="ascii">0 0.01 0  10 0.01 0  0 1.027175258281704 0  10 1.027175258281704 0  0.007129524987038337 0.009997491741717768 0  0.01258064459049757 0.00999219056738478 0  0.01872173241756402 0.009982708334120727 0  0.02429919625640796 0.009970876572043954 0  0.03017238705920286 0.009955108531615313 0  0.03612352734296466 0.0099356743715591 0  0.04164979236492252 0.009914517792428084 0  0.04780928449023854 0.009887415768096998 0  0.05327287671237849 0.009860276931383746 0  0.0593436395885565 0.009826715421083503 0  0.06505608699933001 0.009791870631895848 0  0.07077243060783153 0.009753845329312128 0  0.07684085351634186 0.009710036052663748 0  0.08230528612367993 0.009667566921662384 0  0.08846525752759338 0.009616276826848907 0  0.09398926586603956 0.0095672187064786 0  0.09994377871281757 0.009511110804477986 0  0.10581288515308 0.009452550633355501 0  0.1113930001121819 0.009393893683773193 0  0.1175326299024069 0.009326020378011352 0  0.122983161250664 0.009262856809916281 0  0.1290978349347763 0.009188765415777931 0  0.1347300222736412 0.00911751981665075 0  0.1405327472005438 0.009041131768776852 0  0.1465421455697866 0.008958856277281909 0  0.1520341809431761 0.008880870879718691 0  0.1581991754706344 0.00879018143976357 0  0.1636834803794234 0.008706732874359017 0  0.1697073563005918 0.008612096527554045 0  0.1754901396361989 0.008518345936558386 0  0.1811391035120075 0.008424050210098115 0  0.1872444279222087 0.00831915423323064 0  0.1926961446341008 0.008222899998379215 0  0.198841090009393 0.008111516418624823 0  0.2044064770158165 0.008008028244452866 0  0.2102948627703611 0.007895869216798803 0  0.2162299794791283 0.007780085801116003 0  0.2217647046821167 0.007669675498109103 0  0.2279204403470532 0.007544154739747676 0  0.2333791472114919 0.007430485124751003 0  0.2394590817234977 0.0073013084386626 0  0.245152498789355 0.007177928079207972 0  0.2508861115607116 0.007051356111670669 0  0.2569419868439766 0.006915186417023598 0  0.2624099649457279 0.006790084113692359 0  0.2685711825796066 0.006646722567663751 0  0.274083748205357 0.006516341894728842 0  0.2800541704182985 0.00637292855786236 0  0.2859022845836161 0.006230279166502627 0  0.291495955429921 0.006091868246150131 0  0.2976275706217687 0.005937986548763313 0  0.3030757324287757 0.005799406374294222 0  0.3091980118239236 0.005641654227187252 0  0.3148109405089491 0.005495191514879527 0  0.3206341933715942 0.005341435282378838 0  0.3266248575896781 0.005181393525330103 0  0.3321252080346692 0.005032833254881577 0  0.3382880718234609 0.004864596209960478 0  0.3437628463580178 0.004713611578807419 0  0.3498021006600692 0.004545443593512952 0  0.3555594631656461 0.004383601001460968 0  0.3612291099056053 0.004222822711549606 0  0.3673210805066339 0.004048576418709386 0  0.3727746135437823 0.003891330909934085 0  0.3789246700786391 0.003712634483246944 0  0.3844721023230384 0.00355025746928806 0  0.3903845048135511 0.003376011435332509 0  0.3962935688476314 0.003200699755406988 0  0.4018430601204535 0.00303505085978487 0  0.4079921977692303 0.002850427660455144 0  0.4134449905916002 0.002685819499171436 0  0.4195385366679084 0.002500937932218923 0  0.425204482428441 0.002328206591247292 0  0.4309651825948974 0.00215183074136113 0  0.4370014133195289 0.001966263547608745 0  0.4424769325836848 0.00179732019881714 0  0.4486395183564056 0.001606544730410899 0  0.4541373275735043 0.001435838569361521 0  0.4601308451156257 0.001249254088784412 0  0.4659488863550298 0.001067707976620331 0  0.471564807260988 0.0008921302908496037 0  0.4776843759254726 0.0007004920228137959 0  0.4831317484445766 0.0005296836585198918 0  0.4892643513384632 0.0003372062279158936 0  0.4948528283485032 0.000161696161435303 0  0.5007056813361916 -2.216943068070812e-05 0  0.5066699093509902 -0.000209526046556915 0  0.5121845298566023 -0.0003826949545447442 0  0.5183439831944545 -0.0005759742926309219 0  0.5238088617282698 -0.0007472800272428554 0  0.5298681543527348 -0.0009369594486414562 0  0.5355929349139432 -0.001115856450691032 0  0.5412927239341832 -0.001293613669039852 0  0.5473668732672543 -0.001482588207084091 0  0.5528259073001393 -0.001651967505962102 0  0.5589819336317072 -0.001842386787779294 0  0.5645100189486582 -0.002012797049529044 0  0.5704524332663232 -0.002195301346534757 0  0.5763298911552834 -0.002375058665203144 0  0.5819006708717119 -0.002544689651648297 0  0.5880413281562127 -0.002730768313747055 0  0.5934904284812221 -0.002895042191696308 0  0.5995995320960693 -0.003078202338538874 0  0.605236779888003 -0.003246210954182579 0  0.6110299855290301 -0.003417806240976177 0  0.6170432999212266 -0.00359472323302265 0  0.6225307972792151 -0.00375505261922207 0  0.6286944373476531 -0.003933803567825084 0  0.6341794289295242 -0.004091634709336539 0  0.6401977648984302 -0.004263413669385436 0  0.6459846030577213 -0.004427148756161272 0  0.6516277670629291 -0.004585409549508515 0  0.6577342305863492 -0.004755038487876419 0  0.6631843111407589 -0.004904958327357115 0  0.6693271588517591 -0.005072208653571043 0  0.6748942591145469 -0.005222152905474348 0  0.6807781354428797 -0.005378892074409919 0  0.6867158102497221 -0.005535201343768038 0  0.6922478556369909 -0.005679100421160843 0  0.6984036264198542 -0.005837205328254034 0  0.7038624132928571 -0.005975584427524931 0  0.7099402809449575 -0.006127588021236129 0  0.7156361945945205 -0.006268012368771779 0  0.7213667017809595 -0.006407263887957157 0  0.7274241898103784 -0.006552202568912044 0  0.7328913375361901 -0.006680980644346233 0  0.7390522654079078 -0.006823736587757829 0  0.7445663161830813 -0.006949337256267011 0  0.7505345306161221 -0.007082931996795786 0  0.7563856967966242 -0.007211490056377221 0  0.7619775509571868 -0.007332073958440476 0  0.7681106054434813 -0.007461725199742056 0  0.7735594228940573 -0.007574589702563127 0  0.7796809699364847 -0.007698739982391196 0  0.7852974086111042 -0.007810142587226769 0  0.7911178568436495 -0.007923025648348906 0  0.797112403703894 -0.008036515862006795 0  0.8026119630288198 -0.008138129173272899 0  0.8087760180262171 -0.008249131188213875 0  0.814253500572072 -0.008345174877796967 0  0.8202905515677629 -0.008448166667805387 0  0.8260544286221699 -0.008543663134562481 0  0.831720415905675 -0.008634807324656511 0  0.8378167080097026 -0.008729817306667463 0  0.8432709709919499 -0.008812108559864256 0  0.8494209576248264 -0.008901791974276371 0  0.8549745826348545 -0.008979924427376591 0  0.8608814329347291 -0.009060026011188804 0  0.8667998142885592 -0.009137155111096256 0  0.8723460990452367 -0.009206568509458774 0  0.8784989383774584 -0.009280301817794542 0  0.8839552890388401 -0.009342788637451834 0  0.8900456692707091 -0.009409293585850673 0  0.8957233874467343 -0.009468190513990782 0  0.9014754209053449 -0.009524786393944277 0  0.9075213579987256 -0.009580921173179099 0  0.9129954731058688 -0.009628765913494807 0  0.9191593188847452 -0.009679229788646495 0  0.9246655330424429 -0.009721240864333262 0  0.9306503084472221 -0.009763603884533442 0  0.9364847200361547 -0.009801580348484516 0  0.9420914259676206 -0.009834972127394636 0  0.948219177636862 -0.009867976960504428 0  0.9536688877131657 -0.009894257783109666 0  0.9597979104438458 -0.009920349306153329 0  0.9654020314719589 -0.009940987600901847 0  0.9712398170272581 -0.009959209624459757 0  0.9772219132298864 -0.009974407121723252 0  0.9827297975109929 -0.009985285083248089 0  0.9888934840407251 -0.009993913310034224 0  0.9943667421923366 -0.009998434045983932 0  1.000414962337846 -0.009999991502249178 0  1.00616395254491 -0.009998125110441144 0  1.011844857354635 -0.009993077234903055 0  1.017933801412069 -0.009984132829796667 0  1.023390946643176 -0.00997301205183276 0  1.029544679732296 -0.009956955598792184 0  1.035089558108845 -0.009939300412459717 0  1.041010936359372 -0.009917116481575694 0  1.04691554237944 -0.00989157814857561 0  1.052471258615448 -0.009864440751261633 0  1.05862104751389 -0.009830897850136421 0  1.064075481579663 -0.009798076706746352 0  1.070173358231585 -0.009757978136698224 0  1.075837941143087 -0.00971752009646258 0  1.081604377355612 -0.009673173917302162 0  1.087640686528322 -0.009623351755525641 0  1.093119387704205 -0.009575135453199036 0  1.099284093826516 -0.009517491101966447 0  1.104783734376909 -0.009463052176492596 0  1.110779897618174 -0.009400480030121557 0  1.116599992234411 -0.00933655469875222 0  1.122217899723542 -0.009271889359757672 0  1.128339818747432 -0.009198135031144493 0  1.133789446190431 -0.00912961705214143 0  1.139923317158062 -0.009049295973540348 0  1.145515844317945 -0.008973134373133167 0  1.151367773813766 -0.008890475161473248 0  1.157336906671575 -0.008803064948780913 0  1.16285160438384 -0.008719557366803981 0  1.16901331600552 -0.008623157866544266 0  1.174481522907442 -0.00853490108265173 0  1.180539122189597 -0.008434191931863186 0  1.186271617394136 -0.008336073959344166 0  1.191966996821913 -0.008235914041393521 0  1.198046448076202 -0.008126091334838595 0  1.203505695906331 -0.008024945109277802 0  1.209661806077474 -0.007908057515838151 0  1.21519584913737 -0.007800455577732041 0  1.221132109188887 -0.00768241304184519 0  1.227019087412133 -0.007562711583992629 0  1.232585135446325 -0.007447155722966398 0  1.238729389023077 -0.007316953404904543 0  1.244180486899644 -0.007199156086382225 0  1.250286093435722 -0.007064709646262071 0  1.255932842016573 -0.006938052500145445 0  1.261716857103797 -0.006806053534187844 0  1.26773845151126 -0.006666245775332091 0  1.273222687278595 -0.006536836953056475 0  1.279386853652711 -0.00638906998029936 0  1.284876650734994 -0.006255450389977176 0  1.290887326898431 -0.00610702037198264 0  1.296685536664392 -0.00596177282270944 0  1.30231949087952 -0.005818744638503708 0  1.308431215520824
[...]
<PointData  Scalars="Pressure"> 
<DataArray  type="Float64"  Name="Pressure"  format="ascii">-1.1220046543374040e+00  -1.1220046543374040e+00  -8.9114224959335453e-01  -8.9114224959335453e-01  -1.1219373493574036e+00  -1.1218716498141834e+00  -1.1217845235699007e+00  -1.1216287555989151e+00  -1.1214900625125945e+00  -1.1211500270398387e+00  -1.1210041270559574e+00  -1.1206712320339445e+00  -1.1203395957589901e+00  -1.1199888121678117e+00  -1.1194837078578292e+00  -1.1191960060026145e+00  -1.1185387631341992e+00  -1.1181439358025806e+00  -1.1174730418446257e+00  -1.1168710611930421e+00  -1.1162225034120641e+00  -1.1155217872318355e+00  -1.1148078617998620e+00  -1.1139693546655782e+00  -1.1132175165623219e+00  -1.1123385122182554e+00  -1.1114678845573780e+00  -1.1105783688283186e+00  -1.1095433879856322e+00  -1.1086865385986193e+00  -1.1075928391281620e+00  -1.1065861898776039e+00  -1.1054906303639078e+00  -1.1043515431950806e+00  -1.1032291558124103e+00  -1.1019473056740250e+00  -1.1007301757126218e+00  -1.0995887234272319e+00  -1.0982124379432305e+00  -1.0970109391558018e+00  -1.0956522727295170e+00  -1.0943593875516169e+00  -1.0928573774372079e+00  -1.0915876095605956e+00  -1.0901368504033004e+00  -1.0885955355547592e+00  -1.0871840730097964e+00  -1.0854808353497314e+00  -1.0840438019571339e+00  -1.0823095551411506e+00  -1.0807747071380505e+00  -1.0790869503037246e+00  -1.0773492478869018e+00  -1.0756791263957182e+00  -1.0738083759197961e+00  -1.0720890589497931e+00  -1.0702756854772306e+00  -1.0684668184618078e+00  -1.0667268481954186e+00  -1.0647541236805858e+00  -1.0630692001902819e+00  -1.0610315487237398e+00  -1.0591985732376397e+00  -1.0571762882218640e+00  -1.0551430364495309e+00  -1.0531990348480249e+00  -1.0510131265084890e+00  -1.0490282585972290e+00  -1.0468087814902314e+00  -1.0448349482344921e+00  -1.0427625603622377e+00  -1.0406589321889617e+00  -1.0386085007285064e+00  -1.0364228129635091e+00  -1.0343327201271006e+00  -1.0322180461171184e+00  -1.0299813160125333e+00  -1.0278070050394241e+00  -1.0254245318506197e+00  -1.0232676339831228e+00  -1.0208976619060117e+00  -1.0187002498058959e+00  -1.0163625216571561e+00  -1.0140793350124295e+00  -1.0118941575520510e+00  -1.0094807785173361e+00  -1.0073365739078317e+00  -1.0048903998025442e+00  -1.0026616177763330e+00  -1.0003277451767500e+00  -9.9796910139275774e-01  -9.9577476314709457e-01  -9.9332817066892953e-01  -9.9115038366807662e-01  -9.8871930416488352e-01  -9.8643189716735502e-01  -9.8415063439216099e-01  -9.8172028639640740e-01  -9.7955064337079545e-01  -9.7708876805952938e-01  -9.7489156624677209e-01  -9.7254366415025106e-01  -9.7021457704947101e-01  -9.6803407905257199e-01  -9.6557933208375957e-01  -9.6346634147681942e-01  -9.6108088019673044e-01  -9.5892167801896244e-01  -9.5670512652208672e-01  -9.5441891687049674e-01  -9.5232258473913134e-01  -9.4997656574603440e-01  -9.4792511119128142e-01  -9.4565131742886011e-01  -9.4356518376809506e-01  -9.4143293108739812e-01  -9.3923250057986907e-01  -9.3729735919494039e-01  -9.3505700457650742e-01  -9.3314309749905211e-01  -9.3102421167306237e-01  -9.2898635455860912e-01  -9.2706400388347510e-01  -9.2493690595530098e-01  -9.2311836362367417e-01  -9.2110255561776855e-01  -9.1925951864920408e-01  -9.1745632424576606e-01  -9.1550898253500035e-01  -9.1379939731920712e-01  -9.1184139257381236e-01  -9.1013352268772463e-01  -9.0827654008009095e-01  -9.0649439217878736e-01  -9.0483818834139829e-01  -9.0304852366582922e-01  -9.0154239776794276e-01  -8.9989247865923983e-01  -8.9840417591515753e-01  -8.9687109820723787e-01  -8.9539591119315332e-01  -8.9397696031780249e-01  -8.9249224561950646e-01  -8.9120095670036770e-01  -8.8978358828100157e-01  -8.8860749750141355e-01  -8.8728887508322207e-01  -8.8606149331217432e-01  -8.8478567716529366e-01  -8.8352243495539740e-01  -8.8249477318358749e-01  -8.8129232064939811e-01  -8.8026256783151036e-01  -8.7930441134956061e-01  -8.7827573016566518e-01  -8.7739505311311206e-01  -8.7642172737851876e-01  -8.7558890048717919e-01  -8.7478055662211773e-01  -8.7409212366068478e-01  -8.7339666888525791e-01  -8.7273535124044832e-01  -8.7218898311716175e-01  -8.7158510679951984e-01  -8.7114928461126950e-01  -8.7057187231264366e-01  -8.7025902734210991e-01  -8.6981464780862050e-01  -8.6949495711579683e-01  -8.6923158593957217e-01  -8.6893853377233332e-01  -8.6875820320975428e-01  -8.6859715765023038e-01  -8.6852469678197930e-01  -8.6847087116056243e-01  -8.6847081110122160e-01  -8.6847565301843099e-01  -8.6854665107061901e-01  -8.6863776970395434e-01  -8.6876440225773166e-01  -8.6891572772148862e-01  -8.6918142356965111e-01  -8.6946688876664147e-01  -8.6989293018730873e-01  -8.7021847585612389e-01  -8.7072614718976737e-01  -8.7119194543325762e-01  -8.7172182278601829e-01  -8.7234248484319066e-01  -8.7280227667635080e-01  -8.7364384524157945e-01  -8.7417681724406293e-01  -8.7505420800884759e-01  -8.7578017768771654e-01  -8.7660200571909874e-01  -8.7751281191513242e-01  -8.7829972418959923e-01  -8.7933469285644883e-01  -8.8025578769158153e-01  -8.8136354614173440e-01  -8.8242427236186438e-01  -8.8362128834434295e-01  -8.8482575576719658e-01  -8.8599024193682407e-01  -8.8731703056891709e-01  -8.8850196774203283e-01  -8.8988182651066960e-01  -8.9128709127053563e-01  -8.9253313070851503e-01  -8.9408140425241101e-01  -8.9536597637313431e-01  -8.9697360132735171e-01  -8.9842600020816554e-01  -8.9998512648519102e-01  -9.0164926213859309e-01  -9.0325418717179673e-01  -9.0498570151174973e-01  -9.0661646523110229e-01  -9.0840932016975529e-01  -9.1008666476381372e-01  -9.1186149719250109e-01  -9.1370628091405692e-01  -9.1533968687680645e-01  -9.1729569739837447e-01  -9.1910987776696729e-01  -9.2109215943340406e-01  -9.2299451954786349e-01  -9.2478190924214643e-01  -9.2696061793176199e-01  -9.2864526488375976e-01  -9.3086106787482958e-01  -9.3280972220005332e-01  -9.3489137937218014e-01  -9.3710411494814438e-01  -9.3906322951258814e-01  -9.4137531180909850e-01  -9.4342558264457121e-01  -9.4569882380159653e-01  -9.4781787140785201e-01  -9.5003068481882458e-01  -9.5231977438247140e-01  -9.5442585837068739e-01  -9.5680203081743298e-01  -9.5896097136130110e-01  -9.6132185362356271e-01  -9.6368308960259141e-01  -9.6588920228641106e-01  -9.6835715127032540e-01  -9.7048722267778409e-01  -9.7288741960112912e-01  -9.7511634246585199e-01  -9.7739401090973499e-01  -9.7978205545292063e-01  -9.8199556608460337e-01  -9.8449460796243660e-01  -9.8672118886840587e-01  -9.8913699917356201e-01  -9.9147280043079855e-01  -9.9369779798833913e-01  -9.9624693732495018e-01  -9.9838258052119866e-01  -1.0009379205707287e+00  -1.0031314601405972e+00  -1.0054602551627869e+00  -1.0078074965739581e+00  -1.0099316053858010e+00  -1.0122624860188887e+00  -1.0143737650467866e+00  -1.0167020721868774e+00  -1.0188728219064358e+00  -1.0210619014132047e+00  -1.0233912177895779e+00  -1.0253973463170392e+00  -1.0276702544313177e+00  -1.0297475818711286e+00  -1.0319928738509463e+00  -1.0341670820902191e+00  -1.0362474594945090e+00  -1.0385338477781163e+00  -1.0404923466888600e+00  -1.0427552668552402e+00  -1.0447274524187629e+00  -1.0467948789404351e+00  -1.0488841410443805e+00  -1.0507887366657305e+00  -1.0529327374405593e+00  -1.0548219378219437e+00  -1.0568728005731955e+00  -1.0587918706424959e+00  -1.0606616941329683e+00  -1.0626678410095372e+00  -1.0643768023678948e+00  -1.0664972719387891e+00  -1.0681643063641044e+00  -1.0701632724933237e+00  -1.0719384377516306e+00  -1.0737449472339406e+00  -1.0756462773337696e+00  -1.0772729350072496e+00  -1.0792170081081485e+00  -1.0808109984217520e+00  -1.0826179436611543e+00  -1.0841608443330599e+00  -1.0857494527472211e+00  -1.0873499038355963e+00  -1.0886606403154782e+00  -1.0901746964622594e+00  -1.0917504096504407e+00  -1.0930763615718710e+00  -1.0946637553616614e+00  -1.0960130284339766e+00  -1.0975188332067469e+00  -1.0987313650115440e+00  -1.1001325099984733e+00  -1.1013395977871705e+00  -1.1025627763083148e+00  -1.1038107326310416e+00  -1.1048794643566702e+00  -1.1059556001233866e+00  -1.1069108228583981e+00  -1.1078274266092274e+00  -1.1088010556817485e+00  -1.1097190647303092e+00  -1.1106969305332681e+00  -1.1114566030312618e+00  -1.1124770757323885e+00  -1.1131710313796519e+00  -1.1140642224928177e+00  -1.1148488681308657e+00  -1.1155712303561831e+00  -1.1162936872886640e+00  -1.1169046437293491e+00  -1.1175344095038195e+00  -1.1180752243759384e+00  -1.1185954376361755e+00  -1.1190799489597536e+00  -1.1194574239030144e+00  -1.1198647699402926e+00  -1.1201729433670797e+00  -1.1205150281049534e+00  -1.1206678079498791e+00  -1.1210252548353559e+00  -1.1212300544600819e+00  -1.1213899704398531e+00  -1.1215435915148806e+00  -1.1215667079649216e+00  -1.1216613963023747e+00  -1.1216472758384401e+00  -1.1216259873623211e+00  -1.1215792089148482e+00  -1.1214929528679207e+00  -1.1213815154475422e+00  -1.1211609844061974e+00  -1.1209478167516809e+00  -1.1207042279040835e+00  -1.1204146764557730e+00  -1.1201298504726231e+00  -1.1198088916109483e+00  -1.1194392999706426e+00  -1.1189943413192269e+00  -1.1185380501135760e+00  -1.1179965209896470e+00  -1.1174627219242212e+00  -1.1169262344507127e+00  -1.1162437862092089e+00  -1.1157280720785565e+00  -1.1149989379060117e+00  -1.1142110144255022e+00  -1.1135006052761165e+00  -1.1126538469278606e+00  -1.1118792637165653e+00  -1.1109935425624462e+00  -1.1100548662077008e+00  -1.1091465822933275e+00  -1.1081545978420804e+00  -1.1071770027613783e+00  -1.1059577535634575e+00  -1.1049943423783826e+00  -1.1037336365532422e+00  -1.1025492216791450e+00  -1.1014373068809769e+00  -1.1001184710285730e+00  -1.0990248010130634e+00  -1.0975354866846418e+00  -1.0963528928113615e+00  -1.0948976267877972e+00  -1.0935207711913835e+00  -1.0921894793603566e+00  -1.0906715472201589e+00  -1.0892151556670886e+00  -1.0875678597512479e+00  -1.0860221602200253e+00  -1.0844018593422280e+00  -1.0828068117266225e+00  -1.0812062180083744e+00  -1.0795024508227860e+00  -1.0779268803677018e+00  -1.0761249957316683e+00  -1.0744976088494398e+00  -1.0726852580107833e+00  -1.0708538651033854e+00  -1.0691383544562785e+00  -1.0671178990589869e+00  -1.0654347684465075e+00  -1.0633746679150149e+00  -1.0615239241911292e+00  -1.0595185079344598e+00  -1.0574898394047083e+00  -1.0555558345395524e+00  -1.0534650754745478e+00  -1.0515785224589989e+00  -1.0495167556349585e+00  -1.0475376144740320e+00  -1.0454789656228092e+00  -1.0433247105116654e+00  -1.0413519953191004e+00  -1.0391562343526681e+00  -1.0371756972810386e+00  -1.0349795162306250e+00  -1.0328327921599489e+00  -1.0307562101237693e+00  -1.0283912738353198e+00  -1.0262817263815052e+00  -1.0239251044253617e+00  -1.0217262877414082e+00  -1.0194448740351298e+00  -1.0171034389983262e+00  -1.0149145668609909e+00  -1.0124579634805981e+00  -1.0102781996991135e+00  -1.0078295138277922e+00  -1.0055717812418925e+00  -1.0032242055919138e+00  -1.0008665171458004e+00  -9.9867546327116696e-01  -9.9621431947725725e-01  -9.9398300574408260e-01  -9.9157496433171410e-01  -9.8921957234530555e-01  -9.8699285340314258e-01  -9.8453753665366750e-01  -9.8243337140804887e-01  -9.8003638815538618e-01  -9.7796354742790315e-01  -9.7562315465570992e-01  -9.7328459651768107e-01  -9.7116741772785065e-01  -9.6870605826539347e-01  -9.6652586057578282e-01  -9.6413985685978354e-01  -9.6190698139097452e-01  -9.5972094606956126e-01  -9.5735110654330224e-01  -9.5528539546111335e-01  -9.5286227681518199e-01  -9.5077896538838647e-01  -9.4844152475588728e-01  -9.4620023910408546e-01  -9.4411863445695277e-01  -9.4179291716413460e-01  -9.3979870551202271e-01  -9.3761934439509775e-01  -9.3558516424250215e-01  -9.3351690894559913e-01  -9.3144536851773496e-01  -9.2955110176433298e-01  -9.2741778433230748e-01  -9.2563991712905946e-01  -9.2356145404683565e-01  -9.2165056938983680e-01  -9.1979347096703101e-01  -9.1778204983136968e-01  -9.1604838032621971e-01  -9.1411909235181443e-01  -9.1238361927418887e-01  -9.1055220269344850e-01  -9.0881939139925694e-01  -9.0713855076635763e-01  -9.0530599406408907e-01  -9.0381931607665966e-01  -9.0198627482224802e-01  -9.0046481436783132e-01  -8.9887487046519432e-01  -8.9731260884373742e-01  -8.9585863730031157e-01  -8.9429893705963470e-01  -8.9291896564288464e-01  -8.9145416346299045e-01  -8.9013418094790853e-01  -8.8882693893227038e-01  -8.8742433985968783e-01  -8.8633040099504956e-01  -8.8492148672938653e-01  -8.8392877589542629e-01  -8.8265196008565505e-01  -8.8164317055040942e-01  -8.8055964739028969e-01  -8.7950952306974028e-01  -8.7861055012141642e-01  -8.7762819118980229e-01  -8.7674503612343424e-01  -8.7595024552472200e-01  -8.7511024632825885e-01  -8.7441519935513656e-01  -8.7367487857553916e-01  -8.7315600577079222e-01  -8.7251358766037868e-01  -8.7197879734780670e-01  -8.7148610816798755e-01  -8.7093012245627321e-01  -8.7055970885914591e-01  -8.7002126081600517e-01  -8.6966736299319247e-01  -8.6928571048405667e-01  -8.6909685287556637e-01  -8.6877224643311723e-01  -8.6865569132667986e-01  -8.6860783949084786e-01  -8.6840118029712987e-01  -8.6835880611389704e-01  -8.6831107619605319e-01  -8.6835053063299361e-01  -8.6854102918797371e-01  -8.6866461659912020e-01  -8.6890210769668785e-01  -8.6905075725830949e-01  -8.6950063339163830e-01  -8.6965397044573622e-01  -8.7017475708094516e-01  -8.7066337045115039e-01  -8.7103955267265132e-01  -8.7158737411870757e-01  -8.7212201121361810e-01  -8.7276208265467614e-01  -8.7346627641198349e-01  -8.7413580461250362e-01  -8.7488848111765127e-01  -8.7563176221602745e-01  -8.7650396986742962e-01  -8.7722895028424774e-01  -8.7818043386678346e-01  -8.7901571889266406e-01  -8.8007066765590192e-01  -8.8104760193889009e-01  -8.8209384763174370e-01  -8.8333361306001035e-01  -8.8432339899298151e-01  -8.8557615417522617e-01  -8.8677330162293933e-01  -8.8809640651701860e-01  -8.8952240749566369e-01  -8.9072133720585445e-01  -8.9222471350004562e-01  -8.9355021412410396e-01  -8.9503353804404140e-01  -8.9642988237614762e-01  -8.9789328628401965e-01  -8.9945930980547562e-01  -9.0094205135356342e-01  -9.0267121802528849e-01  -9.0423928137245391e-01  -9.0596922446946604e-01  -9.0772238804357253e-01  -9.0933079030921049e-01  -9.1123301403530998e-01  -9.1294941955705289e-01  -9.1488841315494085e-01  -9.1671011092318444e-01  -9.1860979730958747e-01  -9.2068107983685510e-01  -9.2246062782440041e-01  -9.2461799461681105e-01  -9.2653525055996910e-01  -9.2868293543431846e-01  -9.3064562982288590e-01  -9.3262524798299284e-01  -9.3477928342655692e-01  -9.3672673235836279e-01  -9.3894204162821793e-01  -9.4096628305210095e-01  -9.4314780774073681e-01  -9.4530127231833905e-01  -9.4737260724244943e-01  -9.4966651950616399e-01  -9.5174476531182506e-01  -9.5407588059013870e-01  -9.5623352779392579e-01  -9.5841725888153473e-01  -9.6073729537088448e-01  -9.6287341057924281e-01  -9.6527035579455234e-01  -9.6742292728932333e-01  -9.6979191293563194e-01  -9.7206198783092335e-01  -9.7428085459755021e-01  -9.7676969356888321e-01  -9.7894037041980320e-01  -9.8140879661965541e-01  -9.8360798416588535e-01  -9.8595393496034145e-01  -9.8833833828019146e-01  -9.9057141645353952e-01  -9.9305208505356968e-01  -9.9521815566795346e-01  -9.9763037701894397e-01  -9.9990345673086323e-01  -1.0021956240402501e+00  -1.0045995354998254e+00  -1.0067432627092985e+00  -1.0091375754847656e+00  -1.0113000862920722e+00  -1.0136655237105570e+00  -1.0159521743744344e+00  -1.0181607452301802e+00  -1.0205865485967511e+00  -1.0226750463498375e+00  -1.0250463743387199e+00  -1.0272118281977716e+00  -1.0294434033000752e+00  -1.0317283180190484e+00  -1.0337924734169999e+00  -1.0360670219453278e+00  -1.0380681841804769e+00  -1.0402582333815749e+00  -1.0423295704953250e+00  -1.0444127280044655e+00  -1.0465398922547886e+00  -1.0484919316341419e+00  -1.0506169441771187e+00  -1.0525526140760710e+00  -1.0546353592841295e+00  -1.0566087699852900e+00  -1.0585325643138075e+00  -1.0605874443648609e+00  -1.0622610315018906e+00  -1.0642544622109820e+00  -1.0660181335649530e+00  -1.0678488283765093e+00  -1.0697093259639678e+00  -1.0713937924309600e+00  -1.0732493328973969e+00  -1.0749380764279179e+00  -1.0768028192944843e+00  -1.0785874000534501e+00  -1.0803224827816011e+00  -1.0820650179827214e+00  -1.0837063186971638e+00  -1.0854169382161964e+00  -1.0869342181446058e+00  -1.0885322065945864e+00  -1.0899896074405206e+00  -1.0913901452606782e+00  -1.0928718387146488e+00  -1.0941084184562391e+00  -1.0955745830494572e+00  -1.0968852953975525e+00  -1.0981477336578398e+00  -1.0995117938203396e+00  -1.1005448059747855e+00  -1.1019865814979473e+00  -1.1028961746815951e+00  -1.1041594224709990e+00  -1.1052759867057296e+00  -1.1063729501819723e+00  -1.1075229422273420e+00  -1.1085434932019751e+00  -1.1096061222842590e+00  -1.1105287181098276e+00  -1.1115115160164750e+00  -1.1124533215901764e+00  -1.1132161412792849e+00  -1.1140716487874323e+00  -1.1148334335302346e+00  -1.1155406664249001e+00  -1.1162081127311350e+00  -1.1168460606269741e+00  -1.1174626927293267e+00  -1.1180112632099348e+00  -1.1185630303553593e+00  -1.1189956744020357e+00  -1.1194052879380969e+00  -1.1198017046891653e+00  -1.1201783841496589e+00  -1.1205748724161082e+00  -1.1209080434965133e+00  -1.1212581869544149e+00  -1.1214086537643966e+00  -1.1217224110185502e+00  -1.1218864877415169e+00  -1.1219030330766711e+00  -1.1221165491497711e+00  -1.1219875960662249e+00  -1.1220667498599599e+00  -1.1219344716426072e+00  -1.1218339862280589e+00  -1.1216600387105016e+00  -1.1214720210580371e+00  -1.1212429087381075e+00  -1.1209617961295442e+00  -1.1206907305620653e+00  -1.1202387258122106e+00  -1.1200047748427293e+00  -1.1195420231736009e+00  -1.1191157028655163e+00  -1.1186102821176185e+00  -1.1180676492426476e+00  -1.1175109105613028e+00  -1.1168959851303331e+00  -1.1162554258878747e+00  -1.1155511489895724e+00  -1.1148873582041854e+00  -1.1141212930317486e+00  -1.1133572590969310e+00  -1.1126525598050634e+00  -1.1118111482776989e+00  -1.1108667500178897e+00  -1.1101227301288006e+00  -1.1091861280306801e+00  -1.1083096907759633e+00  -1.1072514397267039e+00  -1.1063801416636825e+00  -1.1052324609069581e+00  -1.1041711662942533e+00  -1.1030044864981019e+00  -1.1016697420207147e+00  -1.1006169959467984e+00  -1.0992731282474388e+00  -1.0981420113060174e+00  -1.0967102455613233e+00  -1.0953896212900869e+00  -1.0939846452089503e+00  -1.0925076093071071e+00  -1.0910878216445479e+00  -1.0895041131317642e+00  -1.0880575296358053e+00  -1.0864687379976323e+00  -1.0849323770953958e+00  -1.0833970434385147e+00  -1.0816886516948525e+00  -1.0801932927896907e+00  -1.0784064579231398e+00  -1.0767214867294526e+00  -1.0750149799045323e+00  -1.0731651626362790e+00  -1.0715281524273099e+00  -1.0695869641363611e+00  -1.0678549330693810e+00  -1.0659117593799099e+00  -1.0640720190928505e+00  -1.0621757745003606e+00  -1.0601586726207779e+00  -1.0583003074389064e+00  -1.0562233280572959e+00  -1.0543785978320392e+00  -1.0523110180830926e+00  -1.0503093484555759e+00  -1.0483410564468292e+00  -1.0461098867099776e+00  -1.0442072519207328e+00  -1.0419169988012784e+00  -1.0398412216840802e+00  -1.0376310191487133e+00  -1.0353766382524656e+00  -1.0332759728036294e+00  -1.0309025469303683e+00  -1.0287776283779515e+00  -1.0264110953680834e+00  -1.0242103977681041e+00  -1.0220288944102953e+00  -1.0195866924274621e+00  -1.0175545562640567e+00  -1.0150766350937965e+00  -1.0129309654208054e+00  -1.0105723300053511e+00  -1.0082794580023571e+00  -1.0061090238657755e+00  -1.0036855861824725e+00  -1.0015574268369680e+00  -9.9917813358606422e-01  -9.9696869270750577e-01  -9.9470771665469215e-01  -9.9236472814869747e-01  -9.9017921325521319e-01  -9.8769064420253783e-01  -9.8541650521288837e-01  -9.8294540531510821e-01  -9.8066886867319991e-01  -9.7838439935250732e-01  -9.7593618637938762e-01  -9.7379460946896179e-01  -9.7138404445495774e-01  -9.6915272135499098e-01  -9.6683198674140236e-01  -9.6451865947751025e-01  -9.6234618032080799e-01  -9.5992600477522150e-01  -9.5782