<?xml version="1.0"?>
<VTKFile type="UnstructuredGrid"  version="0.1"  >
<UnstructuredGrid>
<Piece  NumberOfPoints="4268" NumberOfCells="6752">
<Points>
<DataArray  type="Float64"  NumberOfComponents="3"  format="ascii">0 0.01 0  10 0.01 0  0 1.028869273702567 0  10 1.028869273702567 0  0.007129524987038337 0.009997491741717768 0  0.01258064459049757 0.00999219056738478 0  0.01872173241756402 0.009982708334120727 0  0.02429919625640796 0.009970876572043954 0  0.03017238705920286 0.009955108531615313 0  0.03612352734296466 0.0099356743715591 0  0.04164979236492252 0.009914517792428084 0  0.04780928449023854 0.009887415768096998 0  0.05327287671237849 0.009860276931383746 0  0.0593436395885565 0.009826715421083503 0  0.06505608699933001 0.009791870631895848 0  0.07077243060783153 0.009753845329312128 0  0.07684085351634186 0.009710036052663748 0  0.08230528612367993 0.009667566921662384 0  0.08846525752759338 0.009616276826848907 0  0.09398926586603956 0.0095672187064786 0  0.09994377871281757 0.009511110804477986 0  0.10581288515308 0.009452550633355501 0  0.1113930001121819 0.009393893683773193 0  0.1175326299024069 0.009326020378011352 0  0.122983161250664 0.009262856809916281 0  0.1290978349347763 0.009188765415777931 0  0.1347300222736412 0.00911751981665075 0  0.1405327472005438 0.009041131768776852 0  0.1465421455697866 0.008958856277281909 0  0.1520341809431761 0.008880870879718691 0  0.1581991754706344 0.00879018143976357 0  0.1636834803794234 0.008706732874359017 0  0.1697073563005918 0.008612096527554045 0  0.1754901396361989 0.008518345936558386 0  0.1811391035120075 0.008424050210098115 0  0.1872444279222087 0.00831915423323064 0  0.1926961446341008 0.008222899998379215 0  0.198841090009393 0.008111516418624823 0  0.2044064770158165 0.008008028244452866 0  0.2102948627703611 0.007895869216798803 0  0.2162299794791283 0.007780085801116003 0  0.2217647046821167 0.007669675498109103 0  0.2279204403470532 0.007544154739747676 0  0.2333791472114919 0.007430485124751003 0  0.2394590817234977 0.0073013084386626 0  0.245152498789355 0.007177928079207972 0  0.2508861115607116 0.007051356111670669 0  0.2569419868439766 0.006915186417023598 0  0.2624099649457279 0.006790084113692359 0  0.2685711825796066 0.006646722567663751 0  0.274083748205357 0.006516341894728842 0  0.2800541704182985 0.00637292855786236 0  0.2859022845836161 0.006230279166502627 0  0.291495955429921 0.006091868246150131 0  0.2976275706217687 0.005937986548763313 0  0.3030757324287757 0.005799406374294222 0  0.3091980118239236 0.005641654227187252 0  0.3148109405089491 0.005495191514879527 0  0.3206341933715942 0.005341435282378838 0  0.3266248575896781 0.005181393525330103 0  0.3321252080346692 0.005032833254881577 0  0.3382880718234609 0.004864596209960478 0  0.3437628463580178 0.004713611578807419 0  0.3498021006600692 0.004545443593512952 0  0.3555594631656461 0.004383601001460968 0  0.3612291099056053 0.004222822711549606 0  0.3673210805066339 0.004048576418709386 0  0.3727746135437823 0.003891330909934085 0  0.3789246700786391 0.003712634483246944 0  0.3844721023230384 0.00355025746928806 0  0.3903845048135511 0.003376011435332509 0  0.3962935688476314 0.003200699755406988 0  0.4018430601204535 0.00303505085978487 0  0.4079921977692303 0.002850427660455144 0  0.4134449905916002 0.002685819499171436 0  0.4195385366679084 0.002500937932218923 0  0.425204482428441 0.002328206591247292 0  0.4309651825948974 0.00215183074136113 0  0.4370014133195289 0.001966263547608745 0  0.4424769325836848 0.00179732019881714 0  0.4486395183564056 0.001606544730410899 0  0.4541373275735043 0.001435838569361521 0  0.4601308451156257 0.001249254088784412 0  0.4659488863550298 0.001067707976620331 0  0.471564807260988 0.0008921302908496037 0  0.4776843759254726 0.0007004920228137959 0  0.4831317484445766 0.0005296836585198918 0  0.4892643513384632 0.0003372062279158936 0  0.4948528283485032 0.000161696161435303 0  0.5007056813361916 -2.216943068070812e-05 0  0.5066699093509902 -0.000209526046556915 0  0.5121845298566023 -0.0003826949545447442 0  0.5183439831944545 -0.0005759742926309219 0  0.5238088617282698 -0.0007472800272428554 0  0.5298681543527348 -0.0009369594486414562 0  0.5355929349139432 -0.001115856450691032 0  0.5412927239341832 -0.001293613669039852 0  0.5473668732672543 -0.001482588207084091 0  0.5528259073001393 -0.001651967505962102 0  0.5589819336317072 -0.001842386787779294 0  0.5645100189486582 -0.002012797049529044 0  0.5704524332663232 -0.002195301346534757 0  0.5763298911552834 -0.002375058665203144 0  0.5819006708717119 -0.002544689651648297 0  0.5880413281562127 -0.002730768313747055 0  0.5934904284812221 -0.002895042191696308 0  0.5995995320960693 -0.003078202338538874 0  0.605236779888003 -0.003246210954182579 0  0.6110299855290301 -0.003417806240976177 0  0.6170432999212266 -0.00359472323302265 0  0.6225307972792151 -0.00375505261922207 0  0.6286944373476531 -0.003933803567825084 0  0.6341794289295242 -0.004091634709336539 0  0.6401977648984302 -0.004263413669385436 0  0.6459846030577213 -0.004427148756161272 0  0.6516277670629291 -0.004585409549508515 0  0.6577342305863492 -0.004755038487876419 0  0.6631843111407589 -0.004904958327357115 0  0.6693271588517591 -0.005072208653571043 0  0.6748942591145469 -0.005222152905474348 0  0.6807781354428797 -0.005378892074409919 0  0.6867158102497221 -0.005535201343768038 0  0.6922478556369909 -0.005679100421160843 0  0.6984036264198542 -0.005837205328254034 0  0.7038624132928571 -0.005975584427524931 0  0.7099402809449575 -0.006127588021236129 0  0.7156361945945205 -0.006268012368771779 0  0.7213667017809595 -0.006407263887957157 0  0.7274241898103784 -0.006552202568912044 0  0.7328913375361901 -0.006680980644346233 0  0.7390522654079078 -0.006823736587757829 0  0.7445663161830813 -0.006949337256267011 0  0.7505345306161221 -0.007082931996795786 0  0.7563856967966242 -0.007211490056377221 0  0.7619775509571868 -0.007332073958440476 0  0.7681106054434813 -0.007461725199742056 0  0.7735594228940573 -0.007574589702563127 0  0.7796809699364847 -0.007698739982391196 0  0.7852974086111042 -0.007810142587226769 0  0.7911178568436495 -0.007923025648348906 0  0.797112403703894 -0.008036515862006795 0  0.8026119630288198 -0.008138129173272899 0  0.8087760180262171 -0.008249131188213875 0  0.814253500572072 -0.008345174877796967 0  0.8202905515677629 -0.008448166667805387 0  0.8260544286221699 -0.008543663134562481 0  0.831720415905675 -0.008634807324656511 0  0.8378167080097026 -0.008729817306667463 0  0.8432709709919499 -0.008812108559864256 0  0.8494209576248264 -0.008901791974276371 0  0.8549745826348545 -0.008979924427376591 0  0.8608814329347291 -0.009060026011188804 0  0.8667998142885592 -0.009137155111096256 0  0.8723460990452367 -0.009206568509458774 0  0.8784989383774584 -0.009280301817794542 0  0.8839552890388401 -0.009342788637451834 0  0.8900456692707091 -0.009409293585850673 0  0.8957233874467343 -0.009468190513990782 0  0.9014754209053449 -0.009524786393944277 0  0.9075213579987256 -0.009580921173179099 0  0.9129954731058688 -0.009628765913494807 0  0.9191593188847452 -0.009679229788646495 0  0.9246655330424429 -0.009721240864333262 0  0.9306503084472221 -0.009763603884533442 0  0.9364847200361547 -0.009801580348484516 0  0.9420914259676206 -0.009834972127394636 0  0.948219177636862 -0.009867976960504428 0  0.9536688877131657 -0.009894257783109666 0  0.9597979104438458 -0.009920349306153329 0  0.9654020314719589 -0.009940987600901847 0  0.9712398170272581 -0.009959209624459757 0  0.9772219132298864 -0.009974407121723252 0  0.9827297975109929 -0.009985285083248089 0  0.9888934840407251 -0.009993913310034224 0  0.9943667421923366 -0.009998434045983932 0  1.000414962337846 -0.009999991502249178 0  1.00616395254491 -0.009998125110441144 0  1.011844857354635 -0.009993077234903055 0  1.017933801412069 -0.009984132829796667 0  1.023390946643176 -0.00997301205183276 0  1.029544679732296 -0.009956955598792184 0  1.035089558108845 -0.009939300412459717 0  1.041010936359372 -0.009917116481575694 0  1.04691554237944 -0.00989157814857561 0  1.052471258615448 -0.009864440751261633 0  1.05862104751389 -0.009830897850136421 0  1.064075481579663 -0.009798076706746352 0  1.070173358231585 -0.009757978136698224 0  1.075837941143087 -0.00971752009646258 0  1.081604377355612 -0.009673173917302162 0  1.087640686528322 -0.009623351755525641 0  1.093119387704205 -0.009575135453199036 0  1.099284093826516 -0.009517491101966447 0  1.104783734376909 -0.009463052176492596 0  1.110779897618174 -0.009400480030121557 0  1.116599992234411 -0.00933655469875222 0  1.122217899723542 -0.009271889359757672 0  1.128339818747432 -0.009198135031144493 0  1.133789446190431 -0.00912961705214143 0  1.139923317158062 -0.009049295973540348 0  1.145515844317945 -0.008973134373133167 0  1.151367773813766 -0.008890475161473248 0  1.157336906671575 -0.008803064948780913 0  1.16285160438384 -0.008719557366803981 0  1.16901331600552 -0.008623157866544266 0  1.174481522907442 -0.00853490108265173 0  1.180539122189597 -0.008434191931863186 0  1.186271617394136 -0.008336073959344166 0  1.191966996821913 -0.008235914041393521 0  1.198046448076202 -0.008126091334838595 0  1.203505695906331 -0.008024945109277802 0  1.209661806077474 -0.007908057515838151 0  1.21519584913737 -0.007800455577732041 0  1.221132109188887 -0.00768241304184519 0  1.227019087412133 -0.007562711583992629 0  1.232585135446325 -0.007447155722966398 0  1.238729389023077 -0.007316953404904543 0  1.244180486899644 -0.007199156086382225 0  1.250286093435722 -0.007064709646262071 0  1.255932842016573 -0.006938052500145445 0  1.261716857103797 -0.006806053534187844 0  1.26773845151126 -0.006666245775332091 0  1.273222687278595 -0.006536836953056475 0  1.279386853652711 -0.00638906998029936 0  1.284876650734994 -0.006255450389977176 0  1.290887326898431 -0.00610702037198264 0  1.296685536664392 -0.00596177282270944 0  1.30231949087952 -0.005818744638503708 0  1.308431215520824
[...]
<PointData  Scalars="Pressure"> 
<DataArray  type="Float64"  Name="Pressure"  format="ascii">-1.1206242793544112e+00  -1.1206242793544112e+00  -8.8657312302588798e-01  -8.8657312302588798e-01  -1.1205571505307386e+00  -1.1204922886458104e+00  -1.1204064758200614e+00  -1.1202523632635517e+00  -1.1201160263564882e+00  -1.1197787896861391e+00  -1.1196358351559590e+00  -1.1193068734349907e+00  -1.1189789854246468e+00  -1.1186331033816703e+00  -1.1181329235111066e+00  -1.1178505837487307e+00  -1.1171996256561314e+00  -1.1168107802584661e+00  -1.1161477174420464e+00  -1.1155525902753858e+00  -1.1149119891914907e+00  -1.1142195041248457e+00  -1.1135139544375496e+00  -1.1126852755641796e+00  -1.1119424172869130e+00  -1.1110736633443021e+00  -1.1102132596763150e+00  -1.1093344796919331e+00  -1.1083106620413887e+00  -1.1074651184947535e+00  -1.1063844073929769e+00  -1.1053893614631529e+00  -1.1043071588779112e+00  -1.1031808876762881e+00  -1.1020732666820281e+00  -1.1008053054931284e+00  -1.0996025312191420e+00  -1.0984764867767396e+00  -1.0971147629196156e+00  -1.0959290951189771e+00  -1.0945861614018226e+00  -1.0933086391088835e+00  -1.0918241511523250e+00  -1.0905705152595158e+00  -1.0891385688095685e+00  -1.0876132267891054e+00  -1.0862215117490186e+00  -1.0845364201624956e+00  -1.0831177705254473e+00  -1.0814036100070175e+00  -1.0798875582540155e+00  -1.0782193409225378e+00  -1.0765029918085289e+00  -1.0748535956172749e+00  -1.0730010097846141e+00  -1.0713013590027378e+00  -1.0695092385047327e+00  -1.0677194232057272e+00  -1.0659993313134197e+00  -1.0640520429016889e+00  -1.0623854932977719e+00  -1.0603758847349827e+00  -1.0585694317024679e+00  -1.0565751830408774e+00  -1.0545631236596580e+00  -1.0526424449827247e+00  -1.0504783517345369e+00  -1.0485110544535061e+00  -1.0463119859922565e+00  -1.0443550230433867e+00  -1.0423018624614580e+00  -1.0402223009454643e+00  -1.0381958607751476e+00  -1.0360380326254273e+00  -1.0339747963033084e+00  -1.0318887250925586e+00  -1.0296782353169489e+00  -1.0275312853307221e+00  -1.0251756439195798e+00  -1.0230426934954344e+00  -1.0206991158950953e+00  -1.0185254664225085e+00  -1.0162137426837154e+00  -1.0139555696541267e+00  -1.0117945321484307e+00  -1.0094075865231857e+00  -1.0072869953895554e+00  -1.0048676319158902e+00  -1.0026631731500897e+00  -1.0003546534759691e+00  -9.9802199493137200e-01  -9.9585141071733718e-01  -9.9343137334682274e-01  -9.9127721689414616e-01  -9.8887241310893381e-01  -9.8660982550283693e-01  -9.8435315874834650e-01  -9.8194907065213133e-01  -9.7980278910615437e-01  -9.7736739460042077e-01  -9.7519376019312032e-01  -9.7287071584648033e-01  -9.7056691645216653e-01  -9.6840887659810737e-01  -9.6598030549881042e-01  -9.6388986350587758e-01  -9.6152948666793958e-01  -9.5939295798460400e-01  -9.5719989287594254e-01  -9.5493779968267434e-01  -9.5286299397522600e-01  -9.5054115073323908e-01  -9.4851095870214042e-01  -9.4626020309463998e-01  -9.4419629943357775e-01  -9.4208533682861983e-01  -9.3990802561065223e-01  -9.3799339077733557e-01  -9.3577600088533242e-01  -9.3388237780007222e-01  -9.3178567268148016e-01  -9.2976897435182793e-01  -9.2786677585477717e-01  -9.2576159760607957e-01  -9.2396220171770060e-01  -9.2196753352963912e-01  -9.2014412741125540e-01  -9.1836045995652593e-01  -9.1643190551929266e-01  -9.1473952552511784e-01  -9.1280148469875344e-01  -9.1111045711638494e-01  -9.0927236760012442e-01  -9.0750845787910062e-01  -9.0586870603045966e-01  -9.0409724581604767e-01  -9.0260630938170117e-01  -9.0097291701378113e-01  -8.9949984670798411e-01  -8.9798140558140138e-01  -8.9652205660411877e-01  -8.9511592633840009e-01  -8.9364679492736643e-01  -8.9236954692950454e-01  -8.9096622659862845e-01  -8.8980085987949931e-01  -8.8849650534143687e-01  -8.8728125541286207e-01  -8.8601819899679157e-01  -8.8476730868678999e-01  -8.8374906341362813e-01  -8.8255981746037249e-01  -8.8153931796479468e-01  -8.8058868037513627e-01  -8.7957338103419658e-01  -8.7870129951858922e-01  -8.7773817484184979e-01  -8.7691281612796568e-01  -8.7610085031279983e-01  -8.7541775082125872e-01  -8.7472059371487754e-01  -8.7406725201484747e-01  -8.7352650705745261e-01  -8.7293071163885505e-01  -8.7250468721472985e-01  -8.7193430250345294e-01  -8.7163019295226229e-01  -8.7119067321745558e-01  -8.7087619597480814e-01  -8.7061543324567214e-01  -8.7032393836520761e-01  -8.7014849104380920e-01  -8.6998556914870218e-01  -8.6991458680040690e-01  -8.6986189940760084e-01  -8.6986070344620414e-01  -8.6986525048051200e-01  -8.6993475719104629e-01  -8.7002570872769880e-01  -8.7015032551548488e-01  -8.7030036462267035e-01  -8.7056276229611085e-01  -8.7084560764463559e-01  -8.7126710387144135e-01  -8.7159028139947881e-01  -8.7209127764390326e-01  -8.7255222132561427e-01  -8.7307637597978360e-01  -8.7369121892693646e-01  -8.7414522297538211e-01  -8.7497938097101446e-01  -8.7550638597670427e-01  -8.7637507592041552e-01  -8.7709395902358811e-01  -8.7790775395094900e-01  -8.7880946757334999e-01  -8.7958807773507619e-01  -8.8061210531026912e-01  -8.8152381747468078e-01  -8.8262056211197715e-01  -8.8367027643009921e-01  -8.8485520152261454e-01  -8.8604891152549492e-01  -8.8720040411455758e-01  -8.8851408997645809e-01  -8.8968727060934727e-01  -8.9105266340221201e-01  -8.9244452464130375e-01  -8.9367662992478669e-01  -8.9521015593810416e-01  -8.9648082965330689e-01  -8.9807239936397165e-01  -8.9951026955617241e-01  -9.0105391326534112e-01  -9.0270163686734373e-01  -9.0429107357187288e-01  -9.0600576968559077e-01  -9.0762078032896387e-01  -9.0939612315939777e-01  -9.1105772570599164e-01  -9.1281505471682955e-01  -9.1464226749054678e-01  -9.1625838604119125e-01  -9.1819477685215301e-01  -9.1999028112492520e-01  -9.2195261187851874e-01  -9.2383487598441505e-01  -9.2560304642143920e-01  -9.2775990745486003e-01  -9.2942562954886332e-01  -9.3161786118204537e-01  -9.3354569458091752e-01  -9.3560505762961144e-01  -9.3779496110645399e-01  -9.3973301084020300e-01  -9.4202138805224500e-01  -9.4405087941133448e-01  -9.4630078251196226e-01  -9.4839819053030805e-01  -9.5058828723548405e-01  -9.5285355094394686e-01  -9.5493773102359114e-01  -9.5728883721924030e-01  -9.5942530133938519e-01  -9.6176129833445978e-01  -9.6409814182988729e-01  -9.6628102499833823e-01  -9.6872313382133535e-01  -9.7083083499656209e-01  -9.7320547622986209e-01  -9.7541056509183210e-01  -9.7766356516837627e-01  -9.8002603990955073e-01  -9.8221534142725053e-01  -9.8468710006226334e-01  -9.8688966640561637e-01  -9.8927827294960646e-01  -9.9158920585728949e-01  -9.9378826755278860e-01  -9.9631113679507188e-01  -9.9842257579170646e-01  -1.0009510578837904e+00  -1.0031206174357550e+00  -1.0054245014727512e+00  -1.0077462545151139e+00  -1.0098476485847581e+00  -1.0121543607759651e+00  -1.0142416937393601e+00  -1.0165467207755767e+00  -1.0186938255802116e+00  -1.0208590943383355e+00  -1.0231634776773086e+00  -1.0251517504988026e+00  -1.0274078385825267e+00  -1.0294647921831874e+00  -1.0316823123741534e+00  -1.0338312465723085e+00  -1.0358898060249355e+00  -1.0381497023673587e+00  -1.0400851581185129e+00  -1.0423253350540629e+00  -1.0442738932388738e+00  -1.0463192631524727e+00  -1.0483816288174541e+00  -1.0502576211645294e+00  -1.0523662499927029e+00  -1.0542227161404902e+00  -1.0562330926206129e+00  -1.0581210033427833e+00  -1.0599658559612017e+00  -1.0619474613673494e+00  -1.0636426413791309e+00  -1.0657387690947628e+00  -1.0673989703024860e+00  -1.0693748841274642e+00  -1.0711437391251570e+00  -1.0729291876593114e+00  -1.0748225143209980e+00  -1.0764366154372298e+00  -1.0783617818631783e+00  -1.0799392820077709e+00  -1.0817243990604595e+00  -1.0832494146508116e+00  -1.0848199171625157e+00  -1.0863972956382377e+00  -1.0876926142620182e+00  -1.0891777946736130e+00  -1.0907511934847669e+00  -1.0920376129051745e+00  -1.0936151051601148e+00  -1.0949319753164974e+00  -1.0964319207768964e+00  -1.0976153321714501e+00  -1.0990006336145284e+00  -1.1001765398003875e+00  -1.1013772782301889e+00  -1.1025961291164494e+00  -1.1036452172645039e+00  -1.1046914755187871e+00  -1.1056238037809003e+00  -1.1065130437069914e+00  -1.1074558846215299e+00  -1.1083521735645006e+00  -1.1093070208921387e+00  -1.1100458117448695e+00  -1.1110579848398900e+00  -1.1117466493801684e+00  -1.1126378208081271e+00  -1.1134371864193020e+00  -1.1141738861282693e+00  -1.1149245845910711e+00  -1.1155314192986958e+00  -1.1162098796326010e+00  -1.1167294152781742e+00  -1.1172798156951464e+00  -1.1177676698219410e+00  -1.1181583540310378e+00  -1.1185750849713332e+00  -1.1188982377851726e+00  -1.1192481348392307e+00  -1.1194202385434970e+00  -1.1197752952195013e+00  -1.1199658511123392e+00  -1.1201138286854291e+00  -1.1202624763176239e+00  -1.1202708423767047e+00  -1.1203801203263384e+00  -1.1203954722438789e+00  -1.1203923066467751e+00  -1.1203611426868285e+00  -1.1202752808665197e+00  -1.1201502849083520e+00  -1.1199265786897694e+00  -1.1197245464086962e+00  -1.1194403829926265e+00  -1.1191568354618910e+00  -1.1188537374276541e+00  -1.1184779667941813e+00  -1.1181026587397729e+00  -1.1176415426858257e+00  -1.1171678901750888e+00  -1.1166547329331635e+00  -1.1161455390562893e+00  -1.1156142837805845e+00  -1.1149184483647547e+00  -1.1144204938403894e+00  -1.1136984041136930e+00  -1.1129302671235917e+00  -1.1122356436048713e+00  -1.1113886749182609e+00  -1.1106027546696104e+00  -1.1097083316239429e+00  -1.1087738098001989e+00  -1.1078686405214391e+00  -1.1068856696602931e+00  -1.1059177640562938e+00  -1.1047172689179028e+00  -1.1037680903369043e+00  -1.1025307836521345e+00  -1.1013673053891468e+00  -1.1002769781009474e+00  -1.0989810875489290e+00  -1.0979078815035552e+00  -1.0964416425738144e+00  -1.0952782910107846e+00  -1.0938399495395743e+00  -1.0924786453474538e+00  -1.0911674213989098e+00  -1.0896713783873095e+00  -1.0882389003085309e+00  -1.0866118158609828e+00  -1.0850860872574217e+00  -1.0834812597817929e+00  -1.0819027817689342e+00  -1.0803241075760597e+00  -1.0786525828150775e+00  -1.0771024721620672e+00  -1.0753428933114797e+00  -1.0737380458885826e+00  -1.0719544094646116e+00  -1.0701702004069709e+00  -1.0684868650079897e+00  -1.0665088838276016e+00  -1.0648511915509866e+00  -1.0628218919699581e+00  -1.0609991481049155e+00  -1.0590187055831226e+00  -1.0570255933260282e+00  -1.0551175417636984e+00  -1.0530541312483819e+00  -1.0511956330149941e+00  -1.0491529301938722e+00  -1.0471930106129650e+00  -1.0451525231886254e+00  -1.0430118744051962e+00  -1.0410450033604333e+00  -1.0388480039740540e+00  -1.0368725144691204e+00  -1.0346725710483056e+00  -1.0325327889182834e+00  -1.0304573633232417e+00  -1.0281040362382712e+00  -1.0260041266977673e+00  -1.0236691095102399e+00  -1.0214847789800656e+00  -1.0192214805340793e+00  -1.0169092813848095e+00  -1.0147621148084316e+00  -1.0123586136117810e+00  -1.0102136264616097e+00  -1.0078184400793098e+00  -1.0055991620630262e+00  -1.0033131714422596e+00  -1.0009899368774922e+00  -9.9886202513436284e-01  -9.9641660687980083e-01  -9.9422850981450950e-01  -9.9184390295941682e-01  -9.8948485620459481e-01  -9.8728443205797412e-01  -9.8484138349669315e-01  -9.8268457659303388e-01  -9.8029433755006534e-01  -9.7813535167345822e-01  -9.7587349782518207e-01  -9.7349730029759984e-01  -9.7135173716121626e-01  -9.6891847122455221e-01  -9.6675701378723533e-01  -9.6435035778056888e-01  -9.6215778270056473e-01  -9.5991136306062197e-01  -9.5766603777802783e-01  -9.5561804564856356e-01  -9.5327530176770314e-01  -9.5123364709338976e-01  -9.4898613652213859e-01  -9.4677510488516159e-01  -9.4474248108858028e-01  -9.4246176584070085e-01  -9.4050106210081275e-01  -9.3833366993464007e-01  -9.3631854448420460e-01  -9.3425020296507078e-01  -9.3219534926110237e-01  -9.3028440113715649e-01  -9.2815146675577642e-01  -9.2636819880042320e-01  -9.2428560423309158e-01  -9.2236940417438340e-01  -9.2051762551327643e-01  -9.1850826940315289e-01  -9.1679288037034046e-01  -9.1488768850249380e-01  -9.1316642557522854e-01  -9.1136426741242205e-01  -9.0965183711919240e-01  -9.0800301097633285e-01  -9.0622073183265228e-01  -9.0473552180490913e-01  -9.0299830138473880e-01  -9.0152120119882428e-01  -8.9993417222416572e-01  -8.9842246299065942e-01  -8.9699562783701969e-01  -8.9546868185816542e-01  -8.9413587374114722e-01  -8.9271832639533832e-01  -8.9134288595467792e-01  -8.9008100675918922e-01  -8.8867002956536678e-01  -8.8750038230678507e-01  -8.8614993396970798e-01  -8.8506992958767672e-01  -8.8384893043284640e-01  -8.8274796349045881e-01  -8.8181500276776403e-01  -8.8081281100756226e-01  -8.7996860059627180e-01  -8.7902842526821812e-01  -8.7825406744278200e-01  -8.7732133143745672e-01  -8.7664741956741132e-01  -8.7582780391962034e-01  -8.7514510983790261e-01  -8.7455419862910755e-01  -8.7394642388028854e-01  -8.7337720386357243e-01  -8.7285109038954667e-01  -8.7228371173565711e-01  -8.7183737428347219e-01  -8.7137068784571481e-01  -8.7100584066771602e-01  -8.7066005808312785e-01  -8.7047753505646097e-01  -8.7020073971083722e-01  -8.7003193237230714e-01  -8.7000518973687679e-01  -8.6981957443147051e-01  -8.6978558970793973e-01  -8.6974072604621955e-01  -8.6976975670062662e-01  -8.6993550716630974e-01  -8.7001614728803067e-01  -8.7022257759525012e-01  -8.7038370475210181e-01  -8.7075671961227552e-01  -8.7093312202236750e-01  -8.7138352166176669e-01  -8.7183880430916749e-01  -8.7219550187806771e-01  -8.7272574691011806e-01  -8.7324512258902776e-01  -8.7387321993838152e-01  -8.7456205427058720e-01  -8.7524011862471551e-01  -8.7600525544813890e-01  -8.7677854249861120e-01  -8.7774823809207903e-01  -8.7852102736072013e-01  -8.7953643784122171e-01  -8.8045209121622525e-01  -8.8150575479633031e-01  -8.8247790947186810e-01  -8.8351247907185326e-01  -8.8473456004162576e-01  -8.8569103663617244e-01  -8.8689330129505251e-01  -8.8806073837036892e-01  -8.8934121289938639e-01  -8.9076185753234249e-01  -8.9196350249833345e-01  -8.9343289820402694e-01  -8.9472458586458403e-01  -8.9621243644744675e-01  -8.9761911035403996e-01  -8.9910440555478321e-01  -9.0068426673572399e-01  -9.0215913823222604e-01  -9.0388206921469172e-01  -9.0538781216146969e-01  -9.0715413843559878e-01  -9.0885883132125367e-01  -9.1054563430177760e-01  -9.1245501779934068e-01  -9.1414715147640324e-01  -9.1610834912130457e-01  -9.1786001227245362e-01  -9.1969725787745715e-01  -9.2164825156022223e-01  -9.2338512664671035e-01  -9.2538288283296499e-01  -9.2720193180338817e-01  -9.2925561771570453e-01  -9.3128588981585614e-01  -9.3321282237763792e-01  -9.3535325973682781e-01  -9.3724953156285096e-01  -9.3944721024410882e-01  -9.4143431650009080e-01  -9.4362423539196760e-01  -9.4577699867985532e-01  -9.4784848669788235e-01  -9.5008286845673906e-01  -9.5207253352005139e-01  -9.5438576997983759e-01  -9.5651578071847321e-01  -9.5872224473693024e-01  -9.6106101723302739e-01  -9.6318193772741723e-01  -9.6557323946769258e-01  -9.6772098017653474e-01  -9.7011938440543344e-01  -9.7241166700654380e-01  -9.7467252766439194e-01  -9.7710445398583434e-01  -9.7923030227147345e-01  -9.8169229856617013e-01  -9.8389958315619219e-01  -9.8624392259746163e-01  -9.8859768228287948e-01  -9.9079440687982478e-01  -9.9324098632037205e-01  -9.9538842543024308e-01  -9.9777926941230699e-01  -9.9998780404941900e-01  -1.0022144962491846e+00  -1.0046018708924123e+00  -1.0067160142755507e+00  -1.0091019907416012e+00  -1.0112284156496543e+00  -1.0135415691863880e+00  -1.0157878890370844e+00  -1.0179628145949209e+00  -1.0202980932986583e+00  -1.0223372059570475e+00  -1.0247013685144375e+00  -1.0268203238565752e+00  -1.0290321164811695e+00  -1.0312711691430818e+00  -1.0333023767824940e+00  -1.0355650681219932e+00  -1.0375347630538128e+00  -1.0397680684032731e+00  -1.0417750701707884e+00  -1.0438677621192998e+00  -1.0460811215271064e+00  -1.0480449052743488e+00  -1.0502147885423394e+00  -1.0521219069538341e+00  -1.0541922034315387e+00  -1.0560873015387671e+00  -1.0580034963612246e+00  -1.0600692510240095e+00  -1.0618272581000630e+00  -1.0638766346660666e+00  -1.0655940263363768e+00  -1.0674275315205313e+00  -1.0692521098534602e+00  -1.0709216031231352e+00  -1.0728111909956071e+00  -1.0744457586546337e+00  -1.0762237124999319e+00  -1.0778859542420913e+00  -1.0794996633362464e+00  -1.0812540038761600e+00  -1.0826763709447997e+00  -1.0844654105110785e+00  -1.0858381850719991e+00  -1.0875148661763294e+00  -1.0889497700482695e+00  -1.0904752405979565e+00  -1.0919907991824294e+00  -1.0931814838824252e+00  -1.0946863465712497e+00  -1.0959484133029962e+00  -1.0972302799806020e+00  -1.0985230562214583e+00  -1.0995669607837815e+00  -1.1008528777675191e+00  -1.1019180595884808e+00  -1.1031130804793330e+00  -1.1041781337234122e+00  -1.1052123719617744e+00  -1.1062550611599891e+00  -1.1071692829344835e+00  -1.1082210053486568e+00  -1.1089875812815795e+00  -1.1099760752533629e+00  -1.1108567605545210e+00  -1.1117027930507313e+00  -1.1125675084282249e+00  -1.1131637046572525e+00  -1.1139571992289408e+00  -1.1146041658007553e+00  -1.1152399544220941e+00  -1.1159188405876665e+00  -1.1165260459608888e+00  -1.1171500660525788e+00  -1.1176539798240450e+00  -1.1181272686802548e+00  -1.1185574634092628e+00  -1.1189073758694552e+00  -1.1192689572944026e+00  -1.1195453876534214e+00  -1.1198485970409218e+00  -1.1199115948456870e+00  -1.1201234529053252e+00  -1.1202159275204977e+00  -1.1203094460770007e+00  -1.1203579529788577e+00  -1.1203728602408611e+00  -1.1203564201446929e+00  -1.1202721539290865e+00  -1.1201285247250266e+00  -1.1199570940913091e+00  -1.1197913340621406e+00  -1.1195975353035652e+00  -1.1194014665073004e+00  -1.1191851427600508e+00  -1.1189183643694234e+00  -1.1186545225334066e+00  -1.1183716563256452e+00  -1.1179974549242051e+00  -1.1175943422865950e+00  -1.1171476215238754e+00  -1.1166659811194313e+00  -1.1160956415114185e+00  -1.1153129197796074e+00  -1.1147705520976507e+00  -1.1139358337307586e+00  -1.1133314247201163e+00  -1.1124808248630917e+00  -1.1117810799503827e+00  -1.1110020058272423e+00  -1.1101792722082946e+00  -1.1092211489546164e+00  -1.1082503194986910e+00  -1.1072745187954776e+00  -1.1061327389460920e+00  -1.1051765937565419e+00  -1.1040138975156273e+00  -1.1029115543782488e+00  -1.1016982612165749e+00  -1.1004647131581673e+00  -1.0992790702261761e+00  -1.0980174353739822e+00  -1.0968287428380825e+00  -1.0954529545028990e+00  -1.0941578264647853e+00  -1.0928315031593441e+00  -1.0913902926638148e+00  -1.0900363659525287e+00  -1.0884288668600322e+00  -1.0869868411938117e+00  -1.0854676787171205e+00  -1.0838918617145581e+00  -1.0824116289503833e+00  -1.0806372048038289e+00  -1.0791271421833744e+00  -1.0772990720575528e+00  -1.0756170461410606e+00  -1.0739050792232354e+00  -1.0721451996382649e+00  -1.0705576408038799e+00  -1.0686838996439190e+00  -1.0669660953217834e+00  -1.0650240253641319e+00  -1.0631932283075103e+00  -1.0612962287594552e+00  -1.0592978737987231e+00  -1.0574878975719451e+00  -1.0554715939848385e+00  -1.0536346121358355e+00  -1.0516069570789890e+00  -1.0496030892146937e+00  -1.0476916396707208e+00  -1.0455209861142021e+00  -1.0435660121329098e+00  -1.0414169102583635e+00  -1.0393644936198994e+00  -1.0373051956338752e+00  -1.0350724555170916e+00  -1.0330104626411025e+00  -1.0307307084963651e+00  -1.0286927788627120e+00  -1.0264477872475508e+00  -1.0242986918105597e+00  -1.0221132080197346e+00  -1.0198000246747219e+00  -1.0176924942474412e+00  -1.0153340170078307e+00  -1.0131971389806014e+00  -1.0108360482219487e+00  -1.0085278551691539e+00  -1.0063362729682097e+00  -1.0038736220115703e+00  -1.0016938448185331e+00  -9.9925780275731302e-01  -9.9701770753570296e-01  -9.9473385578423823e-01  -9.9235991697050041e-01  -9.9017195171261452e-01  -9.8777287863233698e-01  -9.8556154841804167e-01  -9.8320869002566758e-01  -9.8099118851104072e-01  -9.7872367850361586e-01  -9.7629576063516110e-01  -9.7413620012773405e-01  -9.7171630714964807e-01  -9.6954422686941411e-01  -9.6722885681706672e-01  -9.6495115417038146e-01  -9.6286766119633338e-01  -9.6055727697592586e-01  -9.5852