<?xml version="1.0"?>
<VTKFile type="UnstructuredGrid"  version="0.1"  >
<UnstructuredGrid>
<Piece  NumberOfPoints="4308" NumberOfCells="6832">
<Points>
<DataArray  type="Float64"  NumberOfComponents="3"  format="ascii">0 0.01 0  10 0.01 0  0 1.011043849308668 0  10 1.011043849308668 0  0.007129524987038337 0.009997491741717768 0  0.01258064459049757 0.00999219056738478 0  0.01872173241756402 0.009982708334120727 0  0.02429919625640796 0.009970876572043954 0  0.03017238705920286 0.009955108531615313 0  0.03612352734296466 0.0099356743715591 0  0.04164979236492252 0.009914517792428084 0  0.04780928449023854 0.009887415768096998 0  0.05327287671237849 0.009860276931383746 0  0.0593436395885565 0.009826715421083503 0  0.06505608699933001 0.009791870631895848 0  0.07077243060783153 0.009753845329312128 0  0.07684085351634186 0.009710036052663748 0  0.08230528612367993 0.009667566921662384 0  0.08846525752759338 0.009616276826848907 0  0.09398926586603956 0.0095672187064786 0  0.09994377871281757 0.009511110804477986 0  0.10581288515308 0.009452550633355501 0  0.1113930001121819 0.009393893683773193 0  0.1175326299024069 0.009326020378011352 0  0.122983161250664 0.009262856809916281 0  0.1290978349347763 0.009188765415777931 0  0.1347300222736412 0.00911751981665075 0  0.1405327472005438 0.009041131768776852 0  0.1465421455697866 0.008958856277281909 0  0.1520341809431761 0.008880870879718691 0  0.1581991754706344 0.00879018143976357 0  0.1636834803794234 0.008706732874359017 0  0.1697073563005918 0.008612096527554045 0  0.1754901396361989 0.008518345936558386 0  0.1811391035120075 0.008424050210098115 0  0.1872444279222087 0.00831915423323064 0  0.1926961446341008 0.008222899998379215 0  0.198841090009393 0.008111516418624823 0  0.2044064770158165 0.008008028244452866 0  0.2102948627703611 0.007895869216798803 0  0.2162299794791283 0.007780085801116003 0  0.2217647046821167 0.007669675498109103 0  0.2279204403470532 0.007544154739747676 0  0.2333791472114919 0.007430485124751003 0  0.2394590817234977 0.0073013084386626 0  0.245152498789355 0.007177928079207972 0  0.2508861115607116 0.007051356111670669 0  0.2569419868439766 0.006915186417023598 0  0.2624099649457279 0.006790084113692359 0  0.2685711825796066 0.006646722567663751 0  0.274083748205357 0.006516341894728842 0  0.2800541704182985 0.00637292855786236 0  0.2859022845836161 0.006230279166502627 0  0.291495955429921 0.006091868246150131 0  0.2976275706217687 0.005937986548763313 0  0.3030757324287757 0.005799406374294222 0  0.3091980118239236 0.005641654227187252 0  0.3148109405089491 0.005495191514879527 0  0.3206341933715942 0.005341435282378838 0  0.3266248575896781 0.005181393525330103 0  0.3321252080346692 0.005032833254881577 0  0.3382880718234609 0.004864596209960478 0  0.3437628463580178 0.004713611578807419 0  0.3498021006600692 0.004545443593512952 0  0.3555594631656461 0.004383601001460968 0  0.3612291099056053 0.004222822711549606 0  0.3673210805066339 0.004048576418709386 0  0.3727746135437823 0.003891330909934085 0  0.3789246700786391 0.003712634483246944 0  0.3844721023230384 0.00355025746928806 0  0.3903845048135511 0.003376011435332509 0  0.3962935688476314 0.003200699755406988 0  0.4018430601204535 0.00303505085978487 0  0.4079921977692303 0.002850427660455144 0  0.4134449905916002 0.002685819499171436 0  0.4195385366679084 0.002500937932218923 0  0.425204482428441 0.002328206591247292 0  0.4309651825948974 0.00215183074136113 0  0.4370014133195289 0.001966263547608745 0  0.4424769325836848 0.00179732019881714 0  0.4486395183564056 0.001606544730410899 0  0.4541373275735043 0.001435838569361521 0  0.4601308451156257 0.001249254088784412 0  0.4659488863550298 0.001067707976620331 0  0.471564807260988 0.0008921302908496037 0  0.4776843759254726 0.0007004920228137959 0  0.4831317484445766 0.0005296836585198918 0  0.4892643513384632 0.0003372062279158936 0  0.4948528283485032 0.000161696161435303 0  0.5007056813361916 -2.216943068070812e-05 0  0.5066699093509902 -0.000209526046556915 0  0.5121845298566023 -0.0003826949545447442 0  0.5183439831944545 -0.0005759742926309219 0  0.5238088617282698 -0.0007472800272428554 0  0.5298681543527348 -0.0009369594486414562 0  0.5355929349139432 -0.001115856450691032 0  0.5412927239341832 -0.001293613669039852 0  0.5473668732672543 -0.001482588207084091 0  0.5528259073001393 -0.001651967505962102 0  0.5589819336317072 -0.001842386787779294 0  0.5645100189486582 -0.002012797049529044 0  0.5704524332663232 -0.002195301346534757 0  0.5763298911552834 -0.002375058665203144 0  0.5819006708717119 -0.002544689651648297 0  0.5880413281562127 -0.002730768313747055 0  0.5934904284812221 -0.002895042191696308 0  0.5995995320960693 -0.003078202338538874 0  0.605236779888003 -0.003246210954182579 0  0.6110299855290301 -0.003417806240976177 0  0.6170432999212266 -0.00359472323302265 0  0.6225307972792151 -0.00375505261922207 0  0.6286944373476531 -0.003933803567825084 0  0.6341794289295242 -0.004091634709336539 0  0.6401977648984302 -0.004263413669385436 0  0.6459846030577213 -0.004427148756161272 0  0.6516277670629291 -0.004585409549508515 0  0.6577342305863492 -0.004755038487876419 0  0.6631843111407589 -0.004904958327357115 0  0.6693271588517591 -0.005072208653571043 0  0.6748942591145469 -0.005222152905474348 0  0.6807781354428797 -0.005378892074409919 0  0.6867158102497221 -0.005535201343768038 0  0.6922478556369909 -0.005679100421160843 0  0.6984036264198542 -0.005837205328254034 0  0.7038624132928571 -0.005975584427524931 0  0.7099402809449575 -0.006127588021236129 0  0.7156361945945205 -0.006268012368771779 0  0.7213667017809595 -0.006407263887957157 0  0.7274241898103784 -0.006552202568912044 0  0.7328913375361901 -0.006680980644346233 0  0.7390522654079078 -0.006823736587757829 0  0.7445663161830813 -0.006949337256267011 0  0.7505345306161221 -0.007082931996795786 0  0.7563856967966242 -0.007211490056377221 0  0.7619775509571868 -0.007332073958440476 0  0.7681106054434813 -0.007461725199742056 0  0.7735594228940573 -0.007574589702563127 0  0.7796809699364847 -0.007698739982391196 0  0.7852974086111042 -0.007810142587226769 0  0.7911178568436495 -0.007923025648348906 0  0.797112403703894 -0.008036515862006795 0  0.8026119630288198 -0.008138129173272899 0  0.8087760180262171 -0.008249131188213875 0  0.814253500572072 -0.008345174877796967 0  0.8202905515677629 -0.008448166667805387 0  0.8260544286221699 -0.008543663134562481 0  0.831720415905675 -0.008634807324656511 0  0.8378167080097026 -0.008729817306667463 0  0.8432709709919499 -0.008812108559864256 0  0.8494209576248264 -0.008901791974276371 0  0.8549745826348545 -0.008979924427376591 0  0.8608814329347291 -0.009060026011188804 0  0.8667998142885592 -0.009137155111096256 0  0.8723460990452367 -0.009206568509458774 0  0.8784989383774584 -0.009280301817794542 0  0.8839552890388401 -0.009342788637451834 0  0.8900456692707091 -0.009409293585850673 0  0.8957233874467343 -0.009468190513990782 0  0.9014754209053449 -0.009524786393944277 0  0.9075213579987256 -0.009580921173179099 0  0.9129954731058688 -0.009628765913494807 0  0.9191593188847452 -0.009679229788646495 0  0.9246655330424429 -0.009721240864333262 0  0.9306503084472221 -0.009763603884533442 0  0.9364847200361547 -0.009801580348484516 0  0.9420914259676206 -0.009834972127394636 0  0.948219177636862 -0.009867976960504428 0  0.9536688877131657 -0.009894257783109666 0  0.9597979104438458 -0.009920349306153329 0  0.9654020314719589 -0.009940987600901847 0  0.9712398170272581 -0.009959209624459757 0  0.9772219132298864 -0.009974407121723252 0  0.9827297975109929 -0.009985285083248089 0  0.9888934840407251 -0.009993913310034224 0  0.9943667421923366 -0.009998434045983932 0  1.000414962337846 -0.009999991502249178 0  1.00616395254491 -0.009998125110441144 0  1.011844857354635 -0.009993077234903055 0  1.017933801412069 -0.009984132829796667 0  1.023390946643176 -0.00997301205183276 0  1.029544679732296 -0.009956955598792184 0  1.035089558108845 -0.009939300412459717 0  1.041010936359372 -0.009917116481575694 0  1.04691554237944 -0.00989157814857561 0  1.052471258615448 -0.009864440751261633 0  1.05862104751389 -0.009830897850136421 0  1.064075481579663 -0.009798076706746352 0  1.070173358231585 -0.009757978136698224 0  1.075837941143087 -0.00971752009646258 0  1.081604377355612 -0.009673173917302162 0  1.087640686528322 -0.009623351755525641 0  1.093119387704205 -0.009575135453199036 0  1.099284093826516 -0.009517491101966447 0  1.104783734376909 -0.009463052176492596 0  1.110779897618174 -0.009400480030121557 0  1.116599992234411 -0.00933655469875222 0  1.122217899723542 -0.009271889359757672 0  1.128339818747432 -0.009198135031144493 0  1.133789446190431 -0.00912961705214143 0  1.139923317158062 -0.009049295973540348 0  1.145515844317945 -0.008973134373133167 0  1.151367773813766 -0.008890475161473248 0  1.157336906671575 -0.008803064948780913 0  1.16285160438384 -0.008719557366803981 0  1.16901331600552 -0.008623157866544266 0  1.174481522907442 -0.00853490108265173 0  1.180539122189597 -0.008434191931863186 0  1.186271617394136 -0.008336073959344166 0  1.191966996821913 -0.008235914041393521 0  1.198046448076202 -0.008126091334838595 0  1.203505695906331 -0.008024945109277802 0  1.209661806077474 -0.007908057515838151 0  1.21519584913737 -0.007800455577732041 0  1.221132109188887 -0.00768241304184519 0  1.227019087412133 -0.007562711583992629 0  1.232585135446325 -0.007447155722966398 0  1.238729389023077 -0.007316953404904543 0  1.244180486899644 -0.007199156086382225 0  1.250286093435722 -0.007064709646262071 0  1.255932842016573 -0.006938052500145445 0  1.261716857103797 -0.006806053534187844 0  1.26773845151126 -0.006666245775332091 0  1.273222687278595 -0.006536836953056475 0  1.279386853652711 -0.00638906998029936 0  1.284876650734994 -0.006255450389977176 0  1.290887326898431 -0.00610702037198264 0  1.296685536664392 -0.00596177282270944 0  1.30231949087952 -0.005818744638503708 0  1.308431215520824
[...]
<PointData  Scalars="Pressure"> 
<DataArray  type="Float64"  Name="Pressure"  format="ascii">-1.1348582013628543e+00  -1.1348582013628543e+00  -9.3577432298395646e-01  -9.3577432298395646e-01  -1.1346997971939934e+00  -1.1346760380452556e+00  -1.1346802528816977e+00  -1.1343990467879712e+00  -1.1342675056804770e+00  -1.1339661737899744e+00  -1.1337503973367358e+00  -1.1333658633577866e+00  -1.1329986923867421e+00  -1.1325426602600630e+00  -1.1320525938744261e+00  -1.1315481716432845e+00  -1.1310077549471362e+00  -1.1302729690381406e+00  -1.1297824502365914e+00  -1.1288986975739825e+00  -1.1283449663830953e+00  -1.1274554168378943e+00  -1.1268454298389661e+00  -1.1259696550784195e+00  -1.1250178674783109e+00  -1.1242215722966524e+00  -1.1231804365073590e+00  -1.1220655142159339e+00  -1.1209731222705357e+00  -1.1200143187062874e+00  -1.1188305137411223e+00  -1.1176294589097242e+00  -1.1164719683232187e+00  -1.1152202799518960e+00  -1.1140866644459642e+00  -1.1126224401787284e+00  -1.1114886428386470e+00  -1.1099980640981999e+00  -1.1085706169929046e+00  -1.1071180931042335e+00  -1.1055845510156099e+00  -1.1041654179049667e+00  -1.1025762581138483e+00  -1.1010925991516733e+00  -1.0994079779818033e+00  -1.0977859539132890e+00  -1.0961368219045338e+00  -1.0943399182154807e+00  -1.0926944930398144e+00  -1.0908088617183707e+00  -1.0890909163096023e+00  -1.0871896206203124e+00  -1.0852089340359026e+00  -1.0834545751794467e+00  -1.0813855055994903e+00  -1.0795370309528123e+00  -1.0774277271549464e+00  -1.0754517908496657e+00  -1.0733749275681537e+00  -1.0712040596139261e+00  -1.0692162771197078e+00  -1.0669522113344794e+00  -1.0649035107521578e+00  -1.0626675519400222e+00  -1.0604508654901197e+00  -1.0583287750871209e+00  -1.0559582324745269e+00  -1.0537988396893161e+00  -1.0513512037143742e+00  -1.0491143271231389e+00  -1.0467215166906709e+00  -1.0443098600084133e+00  -1.0420096199072362e+00  -1.0394524864443453e+00  -1.0372094712252993e+00  -1.0347661376182862e+00  -1.0324179166657195e+00  -1.0300413622064737e+00  -1.0275036884804374e+00  -1.0252196118997037e+00  -1.0226398042358629e+00  -1.0202546429253068e+00  -1.0176647071021727e+00  -1.0151448556937936e+00  -1.0127563805227684e+00  -1.0100608484314002e+00  -1.0077104986990641e+00  -1.0050363075002244e+00  -1.0025961222633328e+00  -1.0000321866259778e+00  -9.9744168552363222e-01  -9.9502504334694786e-01  -9.9229970857769956e-01  -9.8988388658076809e-01  -9.8724937964370940e-01  -9.8473764417202547e-01  -9.8224025817424776e-01  -9.7962013457215191e-01  -9.7722420087420558e-01  -9.7452902213138071e-01  -9.7211471061217425e-01  -9.6950454184167667e-01  -9.6702341260190483e-01  -9.6460000056052986e-01  -9.6191334789545191e-01  -9.5963255416643256e-01  -9.5693283244217764e-01  -9.5457562013900021e-01  -9.5211776677142002e-01  -9.4960031447980131e-01  -9.4732804180912655e-01  -9.4478168771491067e-01  -9.4252254122686263e-01  -9.3998613567462330e-01  -9.3764626165865095e-01  -9.3530184344005229e-01  -9.3285735944642623e-01  -9.3070017066790711e-01  -9.2825695665824937e-01  -9.2610872180927140e-01  -9.2377816463564943e-01  -9.2145704592008981e-01  -9.1931543177234498e-01  -9.1693921822843505e-01  -9.1490439882514896e-01  -9.1267478491675613e-01  -9.1069668760870515e-01  -9.0869354786121537e-01  -9.0657269036795585e-01  -9.0479619765869512e-01  -9.0265015344333299e-01  -9.0081474900234626e-01  -8.9881198891778125e-01  -8.9691081275533391e-01  -8.9513934937445228e-01  -8.9321755273654990e-01  -8.9157897772110883e-01  -8.8976228886452136e-01  -8.8819463726052772e-01  -8.8648209236968845e-01  -8.8485009983747231e-01  -8.8336988700344443e-01  -8.8177298394107106e-01  -8.8040032449455974e-01  -8.7888033958338618e-01  -8.7750645957951079e-01  -8.7611068866836850e-01  -8.7478673618253000e-01  -8.7350530724931996e-01  -8.7214300191175231e-01  -8.7104905280861822e-01  -8.6974820017563292e-01  -8.6857318140652462e-01  -8.6747327373149086e-01  -8.6630549665673673e-01  -8.6543348843044832e-01  -8.6432636764809267e-01  -8.6345002283333938e-01  -8.6256142392511259e-01  -8.6167103003822632e-01  -8.6107143306813561e-01  -8.6022099931784579e-01  -8.5960793591659124e-01  -8.5892043256267669e-01  -8.5832413233414051e-01  -8.5782700329426798e-01  -8.5741422251568400e-01  -8.5700206944317403e-01  -8.5660405486688951e-01  -8.5633583587267204e-01  -8.5609439428382361e-01  -8.5591370768229391e-01  -8.5581867130057299e-01  -8.5579090799421531e-01  -8.5579973471586634e-01  -8.5584655284084410e-01  -8.5595118919997371e-01  -8.5603575433928902e-01  -8.5628984568637756e-01  -8.5639128738519799e-01  -8.5660009816429572e-01  -8.5680914957103060e-01  -8.5706773432925520e-01  -8.5739136401540528e-01  -8.5774479178075613e-01  -8.5824671329023450e-01  -8.5871258853308374e-01  -8.5929225806936027e-01  -8.5991236372171742e-01  -8.6053406450230607e-01  -8.6139237625722953e-01  -8.6203300697071494e-01  -8.6287993147968156e-01  -8.6369435838806119e-01  -8.6459431857613245e-01  -8.6551935106610434e-01  -8.6644776561789261e-01  -8.6753648007525552e-01  -8.6854956528313931e-01  -8.6959854589924102e-01  -8.7072021722857429e-01  -8.7186556410032534e-01  -8.7315086641886797e-01  -8.7440807189572589e-01  -8.7582042813314631e-01  -8.7715492318039046e-01  -8.7861350539501581e-01  -8.8005859386545138e-01  -8.8155991178994242e-01  -8.8322363560816286e-01  -8.8484829319660074e-01  -8.8656730406942774e-01  -8.8828043055277373e-01  -8.8992364885671216e-01  -8.9178826510364051e-01  -8.9343214186932252e-01  -8.9531221342206502e-01  -8.9702771269971093e-01  -8.9900556402904996e-01  -9.0093143959042121e-01  -9.0291756687583746e-01  -9.0501591820309280e-01  -9.0696420956853763e-01  -9.0910325525673030e-01  -9.1114113682509967e-01  -9.1326626404373545e-01  -9.1551564247697148e-01  -9.1753786009128679e-01  -9.1988545152791612e-01  -9.2191498263110139e-01  -9.2424008720573692e-01  -9.2642026653103915e-01  -9.2866123486578844e-01  -9.3102604600210082e-01  -9.3319755992443787e-01  -9.3561876049601478e-01  -9.3779473061266205e-01  -9.4022290247948992e-01  -9.4253692150599788e-01  -9.4486327843532458e-01  -9.4738955477759734e-01  -9.4962757537940112e-01  -9.5225561162851391e-01  -9.5461191567090253e-01  -9.5715349242033154e-01  -9.5964290796035023e-01  -9.6203577788480676e-01  -9.6473502792438570e-01  -9.6719203217185301e-01  -9.6986154758312981e-01  -9.7232340595606637e-01  -9.7488602741331254e-01  -9.7753566158420901e-01  -9.7990652894193064e-01  -9.8257901866523034e-01  -9.8498846097234261e-01  -9.8756061370766712e-01  -9.9011641161781605e-01  -9.9258821984552426e-01  -9.9521337458373538e-01  -9.9745062799133188e-01  -1.0000112711186642e+00  -1.0023957038670788e+00  -1.0049618557324047e+00  -1.0074718105103957e+00  -1.0099549291097725e+00  -1.0126549329646790e+00  -1.0149459048877649e+00  -1.0176588663035040e+00  -1.0201314629042697e+00  -1.0226600898617233e+00  -1.0253176399908575e+00  -1.0277235695217772e+00  -1.0304138728534986e+00  -1.0327639656100347e+00  -1.0353061222554956e+00  -1.0376852004152859e+00  -1.0399989996677532e+00  -1.0424974748154907e+00  -1.0447120026584533e+00  -1.0471521186569972e+00  -1.0493623639992031e+00  -1.0516651724430943e+00  -1.0539335454994698e+00  -1.0561060475274353e+00  -1.0584520579957297e+00  -1.0605362110685048e+00  -1.0628610295766885e+00  -1.0649762106632152e+00  -1.0671201206544720e+00  -1.0693529293381208e+00  -1.0713226451574624e+00  -1.0735285725347661e+00  -1.0754705026126565e+00  -1.0775187291625739e+00  -1.0795104947610248e+00  -1.0813879496125813e+00  -1.0834240395761663e+00  -1.0852356413302371e+00  -1.0872107677732985e+00  -1.0889964047206655e+00  -1.0908577712953733e+00  -1.0926186454538620e+00  -1.0943918504194059e+00  -1.0963027338400655e+00  -1.0978714624064041e+00  -1.0997495906777359e+00  -1.1012757166627383e+00  -1.1029580014818865e+00  -1.1044527780140767e+00  -1.1059717939561866e+00  -1.1074927001385331e+00  -1.1088849161035514e+00  -1.1103452143670594e+00  -1.1117622893966128e+00  -1.1130500464326292e+00  -1.1144300484205329e+00  -1.1156241491627883e+00  -1.1169368785865723e+00  -1.1180930498923818e+00  -1.1192475955527497e+00  -1.1203953627164882e+00  -1.1213875155635811e+00  -1.1224726649095820e+00  -1.1234082001091570e+00  -1.1244107421810967e+00  -1.1253133907442938e+00  -1.1261620713497913e+00  -1.1270103977497934e+00  -1.1277111978942764e+00  -1.1284881125667074e+00  -1.1291777311588891e+00  -1.1298634436104378e+00  -1.1305209398633207e+00  -1.1310707199608045e+00  -1.1316304177683880e+00  -1.1320751025580056e+00  -1.1325675346495065e+00  -1.1329058074401472e+00  -1.1333480294692200e+00  -1.1336716722495532e+00  -1.1339585018773848e+00  -1.1342139373482405e+00  -1.1343906945270041e+00  -1.1345652339755432e+00  -1.1346050163778207e+00  -1.1347640874951324e+00  -1.1347703645249709e+00  -1.1347360996129745e+00  -1.1346834298469610e+00  -1.1345690059207019e+00  -1.1344181756443714e+00  -1.1342017843591263e+00  -1.1338368623111492e+00  -1.1336256102180897e+00  -1.1331148873646961e+00  -1.1328708031681702e+00  -1.1322652773247273e+00  -1.1319334835539838e+00  -1.1314061634244068e+00  -1.1308218976607134e+00  -1.1302926846063204e+00  -1.1295946322763890e+00  -1.1290458643602168e+00  -1.1282273506051197e+00  -1.1276386247614512e+00  -1.1268300688798238e+00  -1.1260202334531890e+00  -1.1252623348851383e+00  -1.1243667508667550e+00  -1.1235200557063065e+00  -1.1224170999029726e+00  -1.1215194384565352e+00  -1.1203895098809022e+00  -1.1192890237437709e+00  -1.1182361414905864e+00  -1.1170188369335372e+00  -1.1158947379576554e+00  -1.1145866273119784e+00  -1.1133821514504725e+00  -1.1120363855686901e+00  -1.1106924476049973e+00  -1.1093090402032375e+00  -1.1077418002842432e+00  -1.1063885340317805e+00  -1.1047741069040633e+00  -1.1032017229930398e+00  -1.1016702888306449e+00  -1.0998950708429744e+00  -1.0983927030831793e+00  -1.0965747963536292e+00  -1.0949794734604867e+00  -1.0931714689489034e+00  -1.0914038700108488e+00  -1.0896482635558844e+00  -1.0876529295710806e+00  -1.0859184449923487e+00  -1.0838599520552288e+00  -1.0820533265561822e+00  -1.0800187309038225e+00  -1.0780348973855942e+00  -1.0760535750671740e+00  -1.0738900262716897e+00  -1.0719403848337887e+00  -1.0697469993774336e+00  -1.0677363749532836e+00  -1.0655658950381488e+00  -1.0633541418831249e+00  -1.0613247824729104e+00  -1.0589805106580032e+00  -1.0568347439756030e+00  -1.0545180193455224e+00  -1.0521961973835696e+00  -1.0499516914764024e+00  -1.0475099459461112e+00  -1.0453014862574006e+00  -1.0428684205466932e+00  -1.0405700467589643e+00  -1.0380762103084915e+00  -1.0356529268115719e+00  -1.0333402907183045e+00  -1.0307942399713381e+00  -1.0284979064367661e+00  -1.0259515717016934e+00  -1.0235206074284595e+00  -1.0209685999103242e+00  -1.0184328156011750e+00  -1.0159900923341225e+00  -1.0133555066155846e+00  -1.0109912828898067e+00  -1.0082804586210363e+00  -1.0056847766489645e+00  -1.0030799970090978e+00  -1.0003350525820076e+00  -9.9788412947902572e-01  -9.9514635904493487e-01  -9.9275662460207370e-01  -9.9017569405905448e-01  -9.8775146920799695e-01  -9.8541241860339623e-01  -9.8282553427533903e-01  -9.8047457767525548e-01  -9.7792051689510862e-01  -9.7547105890192887e-01  -9.7301302989959115e-01  -9.7048385605265952e-01  -9.6821184201599120e-01  -9.6552957128337413e-01  -9.6318118487925131e-01  -9.6040411615017418e-01  -9.5785340220599446e-01  -9.5525488292131344e-01  -9.5258226859058259e-01  -9.5019489872382701e-01  -9.4750373547480360e-01  -9.4516776891654042e-01  -9.4262025394312221e-01  -9.4006581450711613e-01  -9.3783981967602659e-01  -9.3530885281741416e-01  -9.3309634248150120e-01  -9.3071019557938184e-01  -9.2850547547594597e-01  -9.2631891250764831e-01  -9.2399444409504539e-01  -9.2207895772418624e-01  -9.1978684413306100e-01  -9.1779673992423405e-01  -9.1569056820887840e-01  -9.1366138969758293e-01  -9.1183045227673243e-01  -9.0974213339692522e-01  -9.0788417120900533e-01  -9.0574939577795976e-01  -9.0388481074531934e-01  -9.0193754723917563e-01  -9.0002033035029405e-01  -8.9818461343230593e-01  -8.9616648744330019e-01  -8.9437848763214378e-01  -8.9233793288080954e-01  -8.9064532537512875e-01  -8.8875617358486936e-01  -8.8697496643091811e-01  -8.8531467043175760e-01  -8.8349256195641890e-01  -8.8202905298725165e-01  -8.8044523390419072e-01  -8.7884664014510949e-01  -8.7752668771414866e-01  -8.7605395779813433e-01  -8.7487970076122057e-01  -8.7339378789934430e-01  -8.7217812912458603e-01  -8.7092734217757140e-01  -8.6965370871928649e-01  -8.6871040150890699e-01  -8.6744789215909890e-01  -8.6669221498595683e-01  -8.6551637831534700e-01  -8.6469137741154700e-01  -8.6372928763128831e-01  -8.6291220879318709e-01  -8.6200755114601391e-01  -8.6122819173564069e-01  -8.6057688651831366e-01  -8.5990286262103799e-01  -8.5929513427842696e-01  -8.5871261368178498e-01  -8.5809403500799364e-01  -8.5769240196290608e-01  -8.5714592469599304e-01  -8.5686798908115924e-01  -8.5648545950907007e-01  -8.5629644658385651e-01  -8.5601999048417288e-01  -8.5582648156065566e-01  -8.5579047730143176e-01  -8.5557909471273674e-01  -8.5566844533778086e-01  -8.5560126940650760e-01  -8.5566452153835648e-01  -8.5582413990729000e-01  -8.5584658339594355e-01  -8.5612798687010694e-01  -8.5624296028865698e-01  -8.5667261039536668e-01  -8.5690812498260238e-01  -8.5736431294116922e-01  -8.5778605618728887e-01  -8.5826377579608060e-01  -8.5892202479911006e-01  -8.5941773529224486e-01  -8.6019758470154628e-01  -8.6092527898750837e-01  -8.6175047804981675e-01  -8.6252269589729125e-01  -8.6332033342282499e-01  -8.6422534436167542e-01  -8.6515439053067078e-01  -8.6624786293618095e-01  -8.6729057113876851e-01  -8.6849643324841441e-01  -8.6969664079021003e-01  -8.7090030573917243e-01  -8.7216368443242898e-01  -8.7339410368050496e-01  -8.7462848868249854e-01  -8.7601697207535489e-01  -8.7722766836917931e-01  -8.7880775739375461e-01  -8.8001273037859051e-01  -8.8160833692303719e-01  -8.8308873799486653e-01  -8.8461482795816959e-01  -8.8625986503012821e-01  -8.8780733645955434e-01  -8.8957885777247570e-01  -8.9121276878796118e-01  -8.9306987894851797e-01  -8.9475916419045798e-01  -8.9666688703131570e-01  -8.9852309985989232e-01  -9.0037543086717919e-01  -9.0247762468688453e-01  -9.0426385633491224e-01  -9.0636932993830510e-01  -9.0829019112418363e-01  -9.1032889208812540e-01  -9.1241222726803861e-01  -9.1442176083922067e-01  -9.1667608278237955e-01  -9.1871067906471804e-01  -9.2100354634789372e-01  -9.2316807522813193e-01  -9.2537913768568059e-01  -9.2777774139195313e-01  -9.2987647592808542e-01  -9.3239659392694285e-01  -9.3466363156054566e-01  -9.3713046847635495e-01  -9.3952817096091779e-01  -9.4181158928046727e-01  -9.4433893913049272e-01  -9.4658902654074162e-01  -9.4910574624692456e-01  -9.5145203547812296e-01  -9.5391714609386657e-01  -9.5648587556539910e-01  -9.5883162348208628e-01  -9.6152012596977920e-01  -9.6390596876130741e-01  -9.6652793628191469e-01  -9.6900544752049089e-01  -9.7144299958704361e-01  -9.7409575071826804e-01  -9.7646172248140140e-01  -9.7913760674161454e-01  -9.8153365652480840e-01  -9.8409121859017146e-01  -9.8664970975417687e-01  -9.8902778212044484e-01  -9.9170741086258474e-01  -9.9406906606853374e-01  -9.9671930684505872e-01  -9.9919157062828146e-01  -1.0017221450241161e+00  -1.0044576987860416e+00  -1.0068425779906891e+00  -1.0095665172236403e+00  -1.0120262847060051e+00  -1.0147018639116747e+00  -1.0173031574745535e+00  -1.0197652299759259e+00  -1.0224410159490884e+00  -1.0247380745838890e+00  -1.0273502284436982e+00  -1.0297468108964303e+00  -1.0322519640456163e+00  -1.0347353892464362e+00  -1.0370181267621226e+00  -1.0395216180758702e+00  -1.0417451979737355e+00  -1.0442360086751918e+00  -1.0465297479067006e+00  -1.0488673179277570e+00  -1.0513266951375817e+00  -1.0534905124043268e+00  -1.0559012352577006e+00  -1.0580392786077555e+00  -1.0603127867613273e+00  -1.0625298943865937e+00  -1.0646305994616783e+00  -1.0669204923868019e+00  -1.0687951425127755e+00  -1.0710976920888158e+00  -1.0729458353980366e+00  -1.0750710353450166e+00  -1.0770679110048378e+00  -1.0790025945905026e+00  -1.0811133988676265e+00  -1.0828492115789217e+00  -1.0848912972122278e+00  -1.0867447670358401e+00  -1.0885848360354453e+00  -1.0904193175004155e+00  -1.0921680691521560e+00  -1.0940548705378206e+00  -1.0956190785526019e+00  -1.0973956609784077e+00  -1.0990008502696358e+00  -1.1006067315476711e+00  -1.1023266465677193e+00  -1.1038334585827085e+00  -1.1055163212866563e+00  -1.1068987474960159e+00  -1.1084613242910573e+00  -1.1099424054396620e+00  -1.1111330527639645e+00  -1.1126978773929179e+00  -1.1138265383863644e+00  -1.1152216823411689e+00  -1.1163644350225179e+00  -1.1173862509329147e+00  -1.1185389042156062e+00  -1.1195635566473443e+00  -1.1207249372607633e+00  -1.1218102866867303e+00  -1.1229397826566190e+00  -1.1240336761420506e+00  -1.1249566243524092e+00  -1.1259133870047229e+00  -1.1267150307741274e+00  -1.1275506940011986e+00  -1.1282564585440213e+00  -1.1290625746568186e+00  -1.1297858000721721e+00  -1.1302904894166466e+00  -1.1310265502563630e+00  -1.1315260123742767e+00  -1.1320683648832608e+00  -1.1325785216680344e+00  -1.1329839175780729e+00  -1.1334519101337737e+00  -1.1338332167836596e+00  -1.1341616796952256e+00  -1.1344173903563761e+00  -1.1345686298647413e+00  -1.1347130502578076e+00  -1.1348285637609585e+00  -1.1349259128097724e+00  -1.1349300660094679e+00  -1.1349233848128453e+00  -1.1348642034482186e+00  -1.1347602479786976e+00  -1.1346370497279223e+00  -1.1343208273203613e+00  -1.1341846923510170e+00  -1.1338305153243275e+00  -1.1335172510577634e+00  -1.1331371679551701e+00  -1.1327554213333131e+00  -1.1322693707297724e+00  -1.1316835570986445e+00  -1.1311966888258591e+00  -1.1305490036915478e+00  -1.1299913713887082e+00  -1.1292985695044921e+00  -1.1287712929513172e+00  -1.1280225324353592e+00  -1.1271848654333378e+00  -1.1265020417596852e+00  -1.1255654060846112e+00  -1.1247118070042859e+00  -1.1237313622962797e+00  -1.1227292766515597e+00  -1.1217593496458373e+00  -1.1206547554106208e+00  -1.1195420212767999e+00  -1.1183348090774938e+00  -1.1171777067143929e+00  -1.1158613867117011e+00  -1.1146562489027549e+00  -1.1133060800988042e+00  -1.1119613196760281e+00  -1.1106668327536193e+00  -1.1092297633568331e+00  -1.1078997314135128e+00  -1.1063857614509502e+00  -1.1049021368164436e+00  -1.1035029293669387e+00  -1.1018938777483722e+00  -1.1004043599828581e+00  -1.0987041912078706e+00  -1.0971438562043105e+00  -1.0954325073862139e+00  -1.0936720002050444e+00  -1.0920181971923355e+00  -1.0900490970582413e+00  -1.0883864424034400e+00  -1.0863473435563487e+00  -1.0844922203279441e+00  -1.0825201503953974e+00  -1.0805758255174258e+00  -1.0787118760039354e+00  -1.0765834727222570e+00  -1.0746289165931908e+00  -1.0725042157106794e+00  -1.0704051746160355e+00  -1.0683737515006051e+00  -1.0661010290510975e+00  -1.0639991103054636e+00  -1.0617033391722170e+00  -1.0595157723586512e+00  -1.0571598089279024e+00  -1.0548745905791777e+00  -1.0526575269682101e+00  -1.0502671515887207e+00  -1.0480838392317944e+00  -1.0456349782934342e+00  -1.0433686656140400e+00  -1.0410196012971455e+00  -1.0385865423445957e+00  -1.0363601493328449e+00  -1.0338005893598878e+00  -1.0315458376430955e+00  -1.0290014066361395e+00  -1.0265495988242479e+00  -1.0241142710645044e+00  -1.0215423123703897e+00  -1.0192118070913652e+00  -1.0166490721299539e+00  -1.0141876435269368e+00  -1.0115715179272544e+00  -1.0090430515940298e+00  -1.0066029171364719e+00  -1.0038923157440898e+00  -1.0015028220830084e+00  -9.9879429213309578e-01  -9.9631584489681790e-01  -9.9374444381508109e-01  -9.9108295256552492e-01  -9.8865974029777914e-01  -9.8591204523869880e-01  -9.8351511228792432e-01  -9.8086510256366166e-01  -9.7841268191298070e-01  -9.7594437273966750e-01  -9.7332001482817121e-01  -9.7096837395007018e-01  -9.6834130112930394e-01  -9.6596078584534995e-01  -9.6342929829450352e-01  -9.6092530782957175e-01  -9.5856918137969427e-01  -9.5596612354098909e-01  -9.5365