<?xml version="1.0"?>
<VTKFile type="UnstructuredGrid"  version="0.1"  >
<UnstructuredGrid>
<Piece  NumberOfPoints="4258" NumberOfCells="6732">
<Points>
<DataArray  type="Float64"  NumberOfComponents="3"  format="ascii">0 0.01 0  10 0.01 0  0 1.015641236154565 0  10 1.015641236154565 0  0.007129524987038337 0.009997491741717768 0  0.01258064459049757 0.00999219056738478 0  0.01872173241756402 0.009982708334120727 0  0.02429919625640796 0.009970876572043954 0  0.03017238705920286 0.009955108531615313 0  0.03612352734296466 0.0099356743715591 0  0.04164979236492252 0.009914517792428084 0  0.04780928449023854 0.009887415768096998 0  0.05327287671237849 0.009860276931383746 0  0.0593436395885565 0.009826715421083503 0  0.06505608699933001 0.009791870631895848 0  0.07077243060783153 0.009753845329312128 0  0.07684085351634186 0.009710036052663748 0  0.08230528612367993 0.009667566921662384 0  0.08846525752759338 0.009616276826848907 0  0.09398926586603956 0.0095672187064786 0  0.09994377871281757 0.009511110804477986 0  0.10581288515308 0.009452550633355501 0  0.1113930001121819 0.009393893683773193 0  0.1175326299024069 0.009326020378011352 0  0.122983161250664 0.009262856809916281 0  0.1290978349347763 0.009188765415777931 0  0.1347300222736412 0.00911751981665075 0  0.1405327472005438 0.009041131768776852 0  0.1465421455697866 0.008958856277281909 0  0.1520341809431761 0.008880870879718691 0  0.1581991754706344 0.00879018143976357 0  0.1636834803794234 0.008706732874359017 0  0.1697073563005918 0.008612096527554045 0  0.1754901396361989 0.008518345936558386 0  0.1811391035120075 0.008424050210098115 0  0.1872444279222087 0.00831915423323064 0  0.1926961446341008 0.008222899998379215 0  0.198841090009393 0.008111516418624823 0  0.2044064770158165 0.008008028244452866 0  0.2102948627703611 0.007895869216798803 0  0.2162299794791283 0.007780085801116003 0  0.2217647046821167 0.007669675498109103 0  0.2279204403470532 0.007544154739747676 0  0.2333791472114919 0.007430485124751003 0  0.2394590817234977 0.0073013084386626 0  0.245152498789355 0.007177928079207972 0  0.2508861115607116 0.007051356111670669 0  0.2569419868439766 0.006915186417023598 0  0.2624099649457279 0.006790084113692359 0  0.2685711825796066 0.006646722567663751 0  0.274083748205357 0.006516341894728842 0  0.2800541704182985 0.00637292855786236 0  0.2859022845836161 0.006230279166502627 0  0.291495955429921 0.006091868246150131 0  0.2976275706217687 0.005937986548763313 0  0.3030757324287757 0.005799406374294222 0  0.3091980118239236 0.005641654227187252 0  0.3148109405089491 0.005495191514879527 0  0.3206341933715942 0.005341435282378838 0  0.3266248575896781 0.005181393525330103 0  0.3321252080346692 0.005032833254881577 0  0.3382880718234609 0.004864596209960478 0  0.3437628463580178 0.004713611578807419 0  0.3498021006600692 0.004545443593512952 0  0.3555594631656461 0.004383601001460968 0  0.3612291099056053 0.004222822711549606 0  0.3673210805066339 0.004048576418709386 0  0.3727746135437823 0.003891330909934085 0  0.3789246700786391 0.003712634483246944 0  0.3844721023230384 0.00355025746928806 0  0.3903845048135511 0.003376011435332509 0  0.3962935688476314 0.003200699755406988 0  0.4018430601204535 0.00303505085978487 0  0.4079921977692303 0.002850427660455144 0  0.4134449905916002 0.002685819499171436 0  0.4195385366679084 0.002500937932218923 0  0.425204482428441 0.002328206591247292 0  0.4309651825948974 0.00215183074136113 0  0.4370014133195289 0.001966263547608745 0  0.4424769325836848 0.00179732019881714 0  0.4486395183564056 0.001606544730410899 0  0.4541373275735043 0.001435838569361521 0  0.4601308451156257 0.001249254088784412 0  0.4659488863550298 0.001067707976620331 0  0.471564807260988 0.0008921302908496037 0  0.4776843759254726 0.0007004920228137959 0  0.4831317484445766 0.0005296836585198918 0  0.4892643513384632 0.0003372062279158936 0  0.4948528283485032 0.000161696161435303 0  0.5007056813361916 -2.216943068070812e-05 0  0.5066699093509902 -0.000209526046556915 0  0.5121845298566023 -0.0003826949545447442 0  0.5183439831944545 -0.0005759742926309219 0  0.5238088617282698 -0.0007472800272428554 0  0.5298681543527348 -0.0009369594486414562 0  0.5355929349139432 -0.001115856450691032 0  0.5412927239341832 -0.001293613669039852 0  0.5473668732672543 -0.001482588207084091 0  0.5528259073001393 -0.001651967505962102 0  0.5589819336317072 -0.001842386787779294 0  0.5645100189486582 -0.002012797049529044 0  0.5704524332663232 -0.002195301346534757 0  0.5763298911552834 -0.002375058665203144 0  0.5819006708717119 -0.002544689651648297 0  0.5880413281562127 -0.002730768313747055 0  0.5934904284812221 -0.002895042191696308 0  0.5995995320960693 -0.003078202338538874 0  0.605236779888003 -0.003246210954182579 0  0.6110299855290301 -0.003417806240976177 0  0.6170432999212266 -0.00359472323302265 0  0.6225307972792151 -0.00375505261922207 0  0.6286944373476531 -0.003933803567825084 0  0.6341794289295242 -0.004091634709336539 0  0.6401977648984302 -0.004263413669385436 0  0.6459846030577213 -0.004427148756161272 0  0.6516277670629291 -0.004585409549508515 0  0.6577342305863492 -0.004755038487876419 0  0.6631843111407589 -0.004904958327357115 0  0.6693271588517591 -0.005072208653571043 0  0.6748942591145469 -0.005222152905474348 0  0.6807781354428797 -0.005378892074409919 0  0.6867158102497221 -0.005535201343768038 0  0.6922478556369909 -0.005679100421160843 0  0.6984036264198542 -0.005837205328254034 0  0.7038624132928571 -0.005975584427524931 0  0.7099402809449575 -0.006127588021236129 0  0.7156361945945205 -0.006268012368771779 0  0.7213667017809595 -0.006407263887957157 0  0.7274241898103784 -0.006552202568912044 0  0.7328913375361901 -0.006680980644346233 0  0.7390522654079078 -0.006823736587757829 0  0.7445663161830813 -0.006949337256267011 0  0.7505345306161221 -0.007082931996795786 0  0.7563856967966242 -0.007211490056377221 0  0.7619775509571868 -0.007332073958440476 0  0.7681106054434813 -0.007461725199742056 0  0.7735594228940573 -0.007574589702563127 0  0.7796809699364847 -0.007698739982391196 0  0.7852974086111042 -0.007810142587226769 0  0.7911178568436495 -0.007923025648348906 0  0.797112403703894 -0.008036515862006795 0  0.8026119630288198 -0.008138129173272899 0  0.8087760180262171 -0.008249131188213875 0  0.814253500572072 -0.008345174877796967 0  0.8202905515677629 -0.008448166667805387 0  0.8260544286221699 -0.008543663134562481 0  0.831720415905675 -0.008634807324656511 0  0.8378167080097026 -0.008729817306667463 0  0.8432709709919499 -0.008812108559864256 0  0.8494209576248264 -0.008901791974276371 0  0.8549745826348545 -0.008979924427376591 0  0.8608814329347291 -0.009060026011188804 0  0.8667998142885592 -0.009137155111096256 0  0.8723460990452367 -0.009206568509458774 0  0.8784989383774584 -0.009280301817794542 0  0.8839552890388401 -0.009342788637451834 0  0.8900456692707091 -0.009409293585850673 0  0.8957233874467343 -0.009468190513990782 0  0.9014754209053449 -0.009524786393944277 0  0.9075213579987256 -0.009580921173179099 0  0.9129954731058688 -0.009628765913494807 0  0.9191593188847452 -0.009679229788646495 0  0.9246655330424429 -0.009721240864333262 0  0.9306503084472221 -0.009763603884533442 0  0.9364847200361547 -0.009801580348484516 0  0.9420914259676206 -0.009834972127394636 0  0.948219177636862 -0.009867976960504428 0  0.9536688877131657 -0.009894257783109666 0  0.9597979104438458 -0.009920349306153329 0  0.9654020314719589 -0.009940987600901847 0  0.9712398170272581 -0.009959209624459757 0  0.9772219132298864 -0.009974407121723252 0  0.9827297975109929 -0.009985285083248089 0  0.9888934840407251 -0.009993913310034224 0  0.9943667421923366 -0.009998434045983932 0  1.000414962337846 -0.009999991502249178 0  1.00616395254491 -0.009998125110441144 0  1.011844857354635 -0.009993077234903055 0  1.017933801412069 -0.009984132829796667 0  1.023390946643176 -0.00997301205183276 0  1.029544679732296 -0.009956955598792184 0  1.035089558108845 -0.009939300412459717 0  1.041010936359372 -0.009917116481575694 0  1.04691554237944 -0.00989157814857561 0  1.052471258615448 -0.009864440751261633 0  1.05862104751389 -0.009830897850136421 0  1.064075481579663 -0.009798076706746352 0  1.070173358231585 -0.009757978136698224 0  1.075837941143087 -0.00971752009646258 0  1.081604377355612 -0.009673173917302162 0  1.087640686528322 -0.009623351755525641 0  1.093119387704205 -0.009575135453199036 0  1.099284093826516 -0.009517491101966447 0  1.104783734376909 -0.009463052176492596 0  1.110779897618174 -0.009400480030121557 0  1.116599992234411 -0.00933655469875222 0  1.122217899723542 -0.009271889359757672 0  1.128339818747432 -0.009198135031144493 0  1.133789446190431 -0.00912961705214143 0  1.139923317158062 -0.009049295973540348 0  1.145515844317945 -0.008973134373133167 0  1.151367773813766 -0.008890475161473248 0  1.157336906671575 -0.008803064948780913 0  1.16285160438384 -0.008719557366803981 0  1.16901331600552 -0.008623157866544266 0  1.174481522907442 -0.00853490108265173 0  1.180539122189597 -0.008434191931863186 0  1.186271617394136 -0.008336073959344166 0  1.191966996821913 -0.008235914041393521 0  1.198046448076202 -0.008126091334838595 0  1.203505695906331 -0.008024945109277802 0  1.209661806077474 -0.007908057515838151 0  1.21519584913737 -0.007800455577732041 0  1.221132109188887 -0.00768241304184519 0  1.227019087412133 -0.007562711583992629 0  1.232585135446325 -0.007447155722966398 0  1.238729389023077 -0.007316953404904543 0  1.244180486899644 -0.007199156086382225 0  1.250286093435722 -0.007064709646262071 0  1.255932842016573 -0.006938052500145445 0  1.261716857103797 -0.006806053534187844 0  1.26773845151126 -0.006666245775332091 0  1.273222687278595 -0.006536836953056475 0  1.279386853652711 -0.00638906998029936 0  1.284876650734994 -0.006255450389977176 0  1.290887326898431 -0.00610702037198264 0  1.296685536664392 -0.00596177282270944 0  1.30231949087952 -0.005818744638503708 0  1.308431215520824
[...]
<PointData  Scalars="Pressure"> 
<DataArray  type="Float64"  Name="Pressure"  format="ascii">-1.1312475466005714e+00  -1.1312475466005714e+00  -9.2288125701158397e-01  -9.2288125701158397e-01  -1.1311081453579304e+00  -1.1310491098633531e+00  -1.1310543465938212e+00  -1.1307517446534572e+00  -1.1306239090287253e+00  -1.1303125977175978e+00  -1.1301024680591447e+00  -1.1297127631678514e+00  -1.1293388716708079e+00  -1.1288829960513340e+00  -1.1283921176957605e+00  -1.1278831509811724e+00  -1.1273510447809825e+00  -1.1266401247797417e+00  -1.1261719895626687e+00  -1.1253585160201682e+00  -1.1248369117478254e+00  -1.1240095251535636e+00  -1.1234367445289455e+00  -1.1226160345336433e+00  -1.1217337504525546e+00  -1.1209399066399728e+00  -1.1198407384759874e+00  -1.1189629122923326e+00  -1.1178647117887248e+00  -1.1169148501693937e+00  -1.1157542851326849e+00  -1.1146340991434158e+00  -1.1134187610074275e+00  -1.1121801316663420e+00  -1.1109950117628358e+00  -1.1095136643260322e+00  -1.1083491629351556e+00  -1.1069319843780132e+00  -1.1056380031036188e+00  -1.1042644644802726e+00  -1.1028185765878513e+00  -1.1014502699663309e+00  -1.0998947649729842e+00  -1.0984303584140465e+00  -1.0967937729144985e+00  -1.0952153201953572e+00  -1.0935719926447962e+00  -1.0918127650384308e+00  -1.0901841535555070e+00  -1.0883922841354365e+00  -1.0866670910422414e+00  -1.0849477058223920e+00  -1.0832126880692041e+00  -1.0814145467326342e+00  -1.0793778132660665e+00  -1.0776445199269997e+00  -1.0755705396910231e+00  -1.0736407954701730e+00  -1.0716482765291293e+00  -1.0695440221449568e+00  -1.0675724264083295e+00  -1.0653646415014484e+00  -1.0633377381195075e+00  -1.0611612406637991e+00  -1.0589098858531483e+00  -1.0568564930471795e+00  -1.0545334334638072e+00  -1.0524016562050251e+00  -1.0500678693419749e+00  -1.0478416801223125e+00  -1.0456023660486335e+00  -1.0432632744652279e+00  -1.0410833503638504e+00  -1.0386517635865036e+00  -1.0364375714646057e+00  -1.0340242591709252e+00  -1.0317291484075419e+00  -1.0294519466384191e+00  -1.0269450673378824e+00  -1.0246842564486573e+00  -1.0221053912548577e+00  -1.0198046264505054e+00  -1.0173048366120132e+00  -1.0148654496465082e+00  -1.0125124189281913e+00  -1.0099000838865846e+00  -1.0076086430445388e+00  -1.0050385427157962e+00  -1.0026617621115379e+00  -1.0001442709680133e+00  -9.9768074226686854e-01  -9.9533039263863377e-01  -9.9266083845752795e-01  -9.9026777097203567e-01  -9.8765928386564961e-01  -9.8523182274430710e-01  -9.8281700938898908e-01  -9.8028658935921331e-01  -9.7795902888457109e-01  -9.7528616950905922e-01  -9.7296112243919286e-01  -9.7042233274676293e-01  -9.6797146170106996e-01  -9.6560652509042633e-01  -9.6298621913303906e-01  -9.6073527257820523e-01  -9.5812911016277025e-01  -9.5582027458692798e-01  -9.5343691416540355e-01  -9.5096127442429002e-01  -9.4872790861684753e-01  -9.4619538872513631e-01  -9.4396257771552383e-01  -9.4147607126135358e-01  -9.3918113790910518e-01  -9.3689191720864584e-01  -9.3449692049071464e-01  -9.3237609029209634e-01  -9.3000566475841606e-01  -9.2792800847745749e-01  -9.2570077231208714e-01  -9.2348841597399856e-01  -9.2143383493591868e-01  -9.1916101489252711e-01  -9.1720876480616353e-01  -9.1505673807488941e-01  -9.1315086135507062e-01  -9.1119698928426740e-01  -9.0912892970328529e-01  -9.0738038829267864e-01  -9.0527821827416022e-01  -9.0346831313376608e-01  -9.0149356786806378e-01  -8.9961519146300883e-01  -8.9787768491782483e-01  -8.9599026132531323e-01  -8.9438029070521186e-01  -8.9260860362545691e-01  -8.9107195127003958e-01  -8.8940365879151151e-01  -8.8780719267701602e-01  -8.8636054082224214e-01  -8.8479897426932286e-01  -8.8345771645896609e-01  -8.8197309545960800e-01  -8.8062946430682731e-01  -8.7926317395667652e-01  -8.7796723181703717e-01  -8.7671191034837781e-01  -8.7537597100233855e-01  -8.7430458037361869e-01  -8.7302791577523686e-01  -8.7187549755699045e-01  -8.7079685679683150e-01  -8.6965221195611131e-01  -8.6879868176753960e-01  -8.6771245819900833e-01  -8.6685303483459586e-01  -8.6598032038059047e-01  -8.6510557918562603e-01  -8.6451888466919224e-01  -8.6368366636246585e-01  -8.6308297025813496e-01  -8.6240732318562763e-01  -8.6182224763071502e-01  -8.6133321361065296e-01  -8.6092942725011334e-01  -8.6052328438854009e-01  -8.6013391364547886e-01  -8.5987365960366791e-01  -8.5963732277015248e-01  -8.5946000673743317e-01  -8.5936877639363252e-01  -8.5934173890375376e-01  -8.5935430154158399e-01  -8.5939950169772406e-01  -8.5950525526652477e-01  -8.5959537698727084e-01  -8.5985291788664753e-01  -8.5996565774774869e-01  -8.6018580813043277e-01  -8.6040171207815397e-01  -8.6066831385233000e-01  -8.6099139701769278e-01  -8.6134392206866794e-01  -8.6184709982275909e-01  -8.6231397141631982e-01  -8.6288128679607412e-01  -8.6349021075698429e-01  -8.6409400837271233e-01  -8.6492569059430435e-01  -8.6555257247709050e-01  -8.6637679997368400e-01  -8.6716195654875616e-01  -8.6803108044988508e-01  -8.6891585456166376e-01  -8.6980629560682687e-01  -8.7086204162574044e-01  -8.7184014364175166e-01  -8.7284957039255195e-01  -8.7393044259272645e-01  -8.7502461771053819e-01  -8.7626330255490115e-01  -8.7748299479236447e-01  -8.7884990421095321e-01  -8.8015048978699262e-01  -8.8156206915433666e-01  -8.8296969009985149e-01  -8.8443518369901741e-01  -8.8606998640875434e-01  -8.8766643634151510e-01  -8.8934654632198851e-01  -8.9103520861175800e-01  -8.9262897470175373e-01  -8.9448891361663441e-01  -8.9608738977662261e-01  -8.9795843554952681e-01  -8.9964736522812661e-01  -9.0158771276977601e-01  -9.0347257798645197e-01  -9.0541481774550026e-01  -9.0747113334632978e-01  -9.0937583697989266e-01  -9.1146627617062415e-01  -9.1345080741071494e-01  -9.1552520453745967e-01  -9.1771988049226894e-01  -9.1969895707807647e-01  -9.2199281633452690e-01  -9.2396060280713821e-01  -9.2624626713235103e-01  -9.2835828726020364e-01  -9.3055884483907314e-01  -9.3286183144411572e-01  -9.3498901145501268e-01  -9.3737812498619766e-01  -9.3948500911245569e-01  -9.4185716715695611e-01  -9.4412122328527814e-01  -9.4639273129332580e-01  -9.4886070319937299e-01  -9.5104817906771300e-01  -9.5362107355999115e-01  -9.5593417940627923e-01  -9.5841525000645988e-01  -9.6083331944409578e-01  -9.6316070618298899e-01  -9.6579928041882601e-01  -9.6818783232516148e-01  -9.7080262998395095e-01  -9.7320756614284032e-01  -9.7572709857653939e-01  -9.7830439559062754e-01  -9.8061120712433480e-01  -9.8321039049209302e-01  -9.8555683391629867e-01  -9.8806884290734975e-01  -9.9055491635416826e-01  -9.9300073354052587e-01  -9.9545821576702986e-01  -9.9773428625352634e-01  -1.0001576277167044e+00  -1.0023386388854125e+00  -1.0048330947427082e+00  -1.0071887057679147e+00  -1.0095177379412121e+00  -1.0120159319394761e+00  -1.0142102788671419e+00  -1.0167006651766972e+00  -1.0190787253331397e+00  -1.0215141940967229e+00  -1.0241182049792874e+00  -1.0264718631124268e+00  -1.0291804055323373e+00  -1.0315668000209950e+00  -1.0341483125062330e+00  -1.0366065222233356e+00  -1.0389340325565528e+00  -1.0414903153008239e+00  -1.0437727404088617e+00  -1.0461933741710219e+00  -1.0484451554531731e+00  -1.0507789177283904e+00  -1.0531344012937147e+00  -1.0552613817032397e+00  -1.0576023900374236e+00  -1.0596428092168875e+00  -1.0618439449099155e+00  -1.0638367522517098e+00  -1.0658892358331828e+00  -1.0679736020582338e+00  -1.0698639958057345e+00  -1.0719382723577811e+00  -1.0737676891081833e+00  -1.0757297887951902e+00  -1.0776304598763657e+00  -1.0794246963434713e+00  -1.0814053554449474e+00  -1.0830312210492414e+00  -1.0850276425206127e+00  -1.0866679968515336e+00  -1.0884980311616397e+00  -1.0901722547950192e+00  -1.0918711224585995e+00  -1.0937228984146035e+00  -1.0952327239054378e+00  -1.0970230238371745e+00  -1.0984730207788147e+00  -1.1000376449759204e+00  -1.1015105599383683e+00  -1.1029243035182084e+00  -1.1044262841785892e+00  -1.1057632144038654e+00  -1.1071343326240353e+00  -1.1084945250820741e+00  -1.1097523982413986e+00  -1.1111307179165069e+00  -1.1123207012658785e+00  -1.1136498630916956e+00  -1.1147085533937824e+00  -1.1159313040753176e+00  -1.1170866227386305e+00  -1.1179781287401438e+00  -1.1191959944027450e+00  -1.1199963155170434e+00  -1.1210312523912904e+00  -1.1218863526557346e+00  -1.1227108441472411e+00  -1.1235240327388925e+00  -1.1242420102127613e+00  -1.1249951086402217e+00  -1.1256339010975187e+00  -1.1263308622300225e+00  -1.1268117478808868e+00  -1.1274637347863059e+00  -1.1279856852201648e+00  -1.1284646626920443e+00  -1.1289780911575815e+00  -1.1293005196005474e+00  -1.1297618227363462e+00  -1.1301153602871754e+00  -1.1302801196539569e+00  -1.1307107941486085e+00  -1.1307392865674379e+00  -1.1310335828212505e+00  -1.1310811502035680e+00  -1.1311447893669178e+00  -1.1312064911077782e+00  -1.1311746247643495e+00  -1.1311318679876976e+00  -1.1310279817243878e+00  -1.1308869226053366e+00  -1.1307054522795115e+00  -1.1303357884706102e+00  -1.1302059414035699e+00  -1.1296321388821897e+00  -1.1294379268892050e+00  -1.1288626107976998e+00  -1.1285801539842395e+00  -1.1279994032337197e+00  -1.1273929904138777e+00  -1.1269085865993096e+00  -1.1262901623333201e+00  -1.1257166880462530e+00  -1.1250489474793610e+00  -1.1243864066857436e+00  -1.1235910322393130e+00  -1.1228208642296396e+00  -1.1219642710495377e+00  -1.1210854692893133e+00  -1.1202234546630627e+00  -1.1191765102461735e+00  -1.1183531909986653e+00  -1.1172922911548533e+00  -1.1161350661719496e+00  -1.1151722330727545e+00  -1.1138274546958993e+00  -1.1128205847317225e+00  -1.1115422313265235e+00  -1.1103273792259558e+00  -1.1090227422536314e+00  -1.1077270078472521e+00  -1.1063911036774565e+00  -1.1048191279058113e+00  -1.1035816152111650e+00  -1.1019453668621044e+00  -1.1004815795401706e+00  -1.0988938854886554e+00  -1.0972924482600064e+00  -1.0957332427476996e+00  -1.0939896114040131e+00  -1.0924111022210838e+00  -1.0906495781228780e+00  -1.0889250848973322e+00  -1.0872719738954497e+00  -1.0854098871564375e+00  -1.0837033362896493e+00  -1.0817283924297463e+00  -1.0798729102412785e+00  -1.0779189398801441e+00  -1.0759479563403329e+00  -1.0740453183821101e+00  -1.0719424746725967e+00  -1.0700258253845265e+00  -1.0678376836882602e+00  -1.0658401109800675e+00  -1.0637068620188488e+00  -1.0615510968324871e+00  -1.0595859974808826e+00  -1.0573157706612448e+00  -1.0552893382095958e+00  -1.0530101279958468e+00  -1.0508464569364588e+00  -1.0486509540146529e+00  -1.0463379898896794e+00  -1.0441768316104920e+00  -1.0417587853428911e+00  -1.0395551960798761e+00  -1.0371554131330254e+00  -1.0348394746991156e+00  -1.0325860073108402e+00  -1.0300444804929110e+00  -1.0277963770211094e+00  -1.0252474875079154e+00  -1.0228792153825748e+00  -1.0204314667894119e+00  -1.0179116946021627e+00  -1.0155778046133910e+00  -1.0129425084441883e+00  -1.0105678260517119e+00  -1.0080072257136652e+00  -1.0056124780293001e+00  -1.0031923638578901e+00  -1.0006521096248808e+00  -9.9838299067563407e-01  -9.9578888259288911e-01  -9.9343516960848155e-01  -9.9089092744490892e-01  -9.8844327098313678e-01  -9.8608664085491948e-01  -9.8342917294529131e-01  -9.8109895524073398e-01  -9.7846965421360255e-01  -9.7604107054379774e-01  -9.7356593096621247e-01  -9.7102605867701408e-01  -9.6869976839085048e-01  -9.6613167257197430e-01  -9.6384223262840651e-01  -9.6132923851033769e-01  -9.5900487722644467e-01  -9.5659275197645521e-01  -9.5404818956294379e-01  -9.5181767660173022e-01  -9.4929660837108321e-01  -9.4701601906521504e-01  -9.4459976605142160e-01  -9.4219035229766301e-01  -9.3995883735500507e-01  -9.3744323066997925e-01  -9.3531132956844010e-01  -9.3290076836845226e-01  -9.3080298839387521e-01  -9.2856545054054052e-01  -9.2625627466674798e-01  -9.2424601984380861e-01  -9.2190678308634666e-01  -9.1994192796565710e-01  -9.1781874091755522e-01  -9.1577242173635898e-01  -9.1385830257429224e-01  -9.1171224713723309e-01  -9.0984214407828745e-01  -9.0770144170264822e-01  -9.0585387956748242e-01  -9.0385664363800422e-01  -9.0193434220051516e-01  -9.0018966682034418e-01  -8.9825821360328106e-01  -8.9664542600700381e-01  -8.9480695353848527e-01  -8.9312296709401384e-01  -8.9144833915083321e-01  -8.8980449478073154e-01  -8.8821019557955216e-01  -8.8650982006603396e-01  -8.8518968351739336e-01  -8.8360555784962558e-01  -8.8220773270379038e-01  -8.8085420461091457e-01  -8.7936537816894900e-01  -8.7822112120517903e-01  -8.7676342500656801e-01  -8.7559597673445289e-01  -8.7442549320628737e-01  -8.7321842395418314e-01  -8.7232327374853802e-01  -8.7104532314807548e-01  -8.7032244267652004e-01  -8.6915445325020790e-01  -8.6847919809251251e-01  -8.6748990991936226e-01  -8.6669663327848989e-01  -8.6585088364153173e-01  -8.6494447481073999e-01  -8.6422120958832982e-01  -8.6345242644899767e-01  -8.6280438671037640e-01  -8.6224790072702062e-01  -8.6166209529720272e-01  -8.6128191531699350e-01  -8.6070149254502515e-01  -8.6043995623549896e-01  -8.5996579545287055e-01  -8.5978582740623211e-01  -8.5946697101009706e-01  -8.5924932626921324e-01  -8.5918982924617304e-01  -8.5896860835828726e-01  -8.5903833131238672e-01  -8.5897612969017534e-01  -8.5906166426367347e-01  -8.5926685446615425e-01  -8.5932651194396870e-01  -8.5970035619464014e-01  -8.5984114138042256e-01  -8.6035852849149441e-01  -8.6056407133770718e-01  -8.6100363656203061e-01  -8.6141706136931606e-01  -8.6187394884891400e-01  -8.6246144715301620e-01  -8.6299706970769730e-01  -8.6374418396515296e-01  -8.6439544393948842e-01  -8.6519080143179095e-01  -8.6593859359702274e-01  -8.6675152984299664e-01  -8.6760080464365186e-01  -8.6845725788352757e-01  -8.6947393438310494e-01  -8.7040786996693775e-01  -8.7150991145063283e-01  -8.7264188504607321e-01  -8.7370902513162907e-01  -8.7492205319839900e-01  -8.7602932801669808e-01  -8.7732063666954563e-01  -8.7858947631770723e-01  -8.7993810584584420e-01  -8.8142537623368511e-01  -8.8279404902136438e-01  -8.8439711183829117e-01  -8.8584988209161863e-01  -8.8754555646560018e-01  -8.8903237587946837e-01  -8.9056328200001966e-01  -8.9223763931447486e-01  -8.9389042185951062e-01  -8.9569058380554056e-01  -8.9740410770265011e-01  -8.9930436126480828e-01  -9.0115399341280522e-01  -9.0289978183200159e-01  -9.0496838932730439e-01  -9.0675957806065788e-01  -9.0887851872858205e-01  -9.1079158440061347e-01  -9.1281643711529581e-01  -9.1493472384658292e-01  -9.1689450887658352e-01  -9.1908324771318917e-01  -9.2116281394261657e-01  -9.2340874348779123e-01  -9.2552688071495193e-01  -9.2766991664532383e-01  -9.2993522429349573e-01  -9.3196216273639287e-01  -9.3432358173256114e-01  -9.3646456321405025e-01  -9.3879786114582364e-01  -9.4111310125721648e-01  -9.4337007527204386e-01  -9.4584213213323698e-01  -9.4803582777093809e-01  -9.5053086059814451e-01  -9.5288225639984303e-01  -9.5531687893335726e-01  -9.5789456445602761e-01  -9.6016971531611284e-01  -9.6286635125715536e-01  -9.6515961954144958e-01  -9.6766666380659450e-01  -9.7006051571438134e-01  -9.7244216527107696e-01  -9.7493385955587242e-01  -9.7723676301027718e-01  -9.7981372791655075e-01  -9.8210947991047159e-01  -9.8467594229076227e-01  -9.8714950530400081e-01  -9.8953396328565457e-01  -9.9216049185128441e-01  -9.9442830520434389e-01  -9.9700446271817067e-01  -9.9942092754044776e-01  -1.0018689889148371e+00  -1.0044503661438668e+00  -1.0068344512145631e+00  -1.0095091010124893e+00  -1.0118861388712632e+00  -1.0144604710338185e+00  -1.0169102489002730e+00  -1.0192581657552950e+00  -1.0218510682680888e+00  -1.0241355511182562e+00  -1.0266930150034208e+00  -1.0290048620357064e+00  -1.0314197807757386e+00  -1.0338582383184445e+00  -1.0360660231664365e+00  -1.0385559039704433e+00  -1.0407653312946425e+00  -1.0431880390529966e+00  -1.0454354203095475e+00  -1.0476986688374317e+00  -1.0500363914830333e+00  -1.0520778107393851e+00  -1.0543828739369734e+00  -1.0564101372794072e+00  -1.0586247442831376e+00  -1.0607865332825206e+00  -1.0628212569318984e+00  -1.0650206446151733e+00  -1.0669454715082958e+00  -1.0690538302454007e+00  -1.0709935720748001e+00  -1.0729666139824965e+00  -1.0749131228983739e+00  -1.0767640337827158e+00  -1.0787130892178287e+00  -1.0803653898765728e+00  -1.0822598923097755e+00  -1.0840691779728546e+00  -1.0858761930426819e+00  -1.0878324607700518e+00  -1.0894583690143103e+00  -1.0913981265482524e+00  -1.0930561833189665e+00  -1.0948314339549878e+00  -1.0964915788417275e+00  -1.0981111377054320e+00  -1.0998093011925871e+00  -1.1012758517754861e+00  -1.1028796443230910e+00  -1.1042259205850056e+00  -1.1057887061606995e+00  -1.1071833193655989e+00  -1.1085826970862882e+00  -1.1100164912300210e+00  -1.1111432123412797e+00  -1.1125299963958593e+00  -1.1137058959048582e+00  -1.1147985546808639e+00  -1.1159673058237951e+00  -1.1167814222165882e+00  -1.1178893186293155e+00  -1.1186659961129053e+00  -1.1196405954751252e+00  -1.1205120256764209e+00  -1.1212908072431984e+00  -1.1221720517023881e+00  -1.1229645184373680e+00  -1.1238569416893880e+00  -1.1245099893483426e+00  -1.1253761567297038e+00  -1.1261242808671619e+00  -1.1265913283939755e+00  -1.1274797210898460e+00  -1.1276921906447019e+00  -1.1284563082613475e+00  -1.1289307153011257e+00  -1.1294218182769002e+00  -1.1298575742453725e+00  -1.1302154731593514e+00  -1.1305268612216961e+00  -1.1307743330578970e+00  -1.1309746355396704e+00  -1.1311293428840854e+00  -1.1310738044163635e+00  -1.1312999040582439e+00  -1.1310601749567140e+00  -1.1312317361570854e+00  -1.1310370153660099e+00  -1.1311127801244636e+00  -1.1309346491301604e+00  -1.1306429736911967e+00  -1.1305485459894817e+00  -1.1302260802437019e+00  -1.1299384064066287e+00  -1.1296022314857010e+00  -1.1292762277445134e+00  -1.1288817199841159e+00  -1.1283562175120014e+00  -1.1278805918208146e+00  -1.1272614271306558e+00  -1.1266967864370410e+00  -1.1259541296485314e+00  -1.1253836617513227e+00  -1.1246358043447373e+00  -1.1238184946128358e+00  -1.1231316863611840e+00  -1.1221292668826330e+00  -1.1213981764076968e+00  -1.1203960088307159e+00  -1.1195025062302824e+00  -1.1185271086227182e+00  -1.1175355052169329e+00  -1.1165362733959918e+00  -1.1153523322018006e+00  -1.1143767071121637e+00  -1.1131180667925724e+00  -1.1118921185023316e+00  -1.1106856655755457e+00  -1.1093282731135219e+00  -1.1080383703028307e+00  -1.1065961627213377e+00  -1.1050768511673952e+00  -1.1036661937528205e+00  -1.1020959538279398e+00  -1.1007177911101753e+00  -1.0991086908964005e+00  -1.0976807493709742e+00  -1.0960252064555291e+00  -1.0944320849476752e+00  -1.0927860075640718e+00  -1.0910816096803857e+00  -1.0894430667910573e+00  -1.0876480312040968e+00  -1.0859889844522586e+00  -1.0840908627431731e+00  -1.0823194845425828e+00  -1.0803687489194655e+00  -1.0784012508394012e+00  -1.0765297669406617e+00  -1.0744389461314843e+00  -1.0725752433186622e+00  -1.0705117190512483e+00  -1.0685303611010168e+00  -1.0665695855469532e+00  -1.0643995466238505e+00  -1.0623869086538071e+00  -1.0602230554935210e+00  -1.0581923790679617e+00  -1.0560189015096026e+00  -1.0538286749008037e+00  -1.0516551430784540e+00  -1.0492710913435699e+00  -1.0471554132573175e+00  -1.0447185568423338e+00  -1.0425336393117337e+00  -1.0401769339833975e+00  -1.0378138332375071e+00  -1.0355722353435179e+00  -1.0330138130669575e+00  -1.0307534957995694e+00  -1.0282530862186656e+00  -1.0258950111254319e+00  -1.0235623478339424e+00  -1.0210598837006957e+00  -1.0188111556704669e+00  -1.0162284812106122e+00  -1.0139244577829283e+00  -1.0113834300120279e+00  -1.0089029386775854e+00  -1.0065407540195870e+00  -1.0038892221314946e+00  -1.0015739281146330e+00  -9.9892821274302623e-01  -9.9650400427878605e-01  -9.9400359659821536e-01  -9.9137023130390933e-01  -9.8896604830263524e-01  -9.8626947998951386e-01  -9.8393186288893386e-01  -9.8136497209282936e-01  -9.7883721349944697e-01  -9.7642223915428850e-01  -9.7381139482645296e-01  -9.7141570429650159e-01  -9.6877507562504839e-01  -9.6644531821958890e-01  -9.6393729824766872e-01  -9.6147913122824635e-01  -9.5918401107044893e-01  -9.5663203015054465e-01  -9.5439