<?xml version="1.0"?>
<VTKFile type="UnstructuredGrid"  version="0.1"  >
<UnstructuredGrid>
<Piece  NumberOfPoints="4279" NumberOfCells="6774">
<Points>
<DataArray  type="Float64"  NumberOfComponents="3"  format="ascii">0 0.01 0  10 0.01 0  0 1.013256116745685 0  10 1.013256116745685 0  0.007129524987038337 0.009997491741717768 0  0.01258064459049757 0.00999219056738478 0  0.01872173241756402 0.009982708334120727 0  0.02429919625640796 0.009970876572043954 0  0.03017238705920286 0.009955108531615313 0  0.03612352734296466 0.0099356743715591 0  0.04164979236492252 0.009914517792428084 0  0.04780928449023854 0.009887415768096998 0  0.05327287671237849 0.009860276931383746 0  0.0593436395885565 0.009826715421083503 0  0.06505608699933001 0.009791870631895848 0  0.07077243060783153 0.009753845329312128 0  0.07684085351634186 0.009710036052663748 0  0.08230528612367993 0.009667566921662384 0  0.08846525752759338 0.009616276826848907 0  0.09398926586603956 0.0095672187064786 0  0.09994377871281757 0.009511110804477986 0  0.10581288515308 0.009452550633355501 0  0.1113930001121819 0.009393893683773193 0  0.1175326299024069 0.009326020378011352 0  0.122983161250664 0.009262856809916281 0  0.1290978349347763 0.009188765415777931 0  0.1347300222736412 0.00911751981665075 0  0.1405327472005438 0.009041131768776852 0  0.1465421455697866 0.008958856277281909 0  0.1520341809431761 0.008880870879718691 0  0.1581991754706344 0.00879018143976357 0  0.1636834803794234 0.008706732874359017 0  0.1697073563005918 0.008612096527554045 0  0.1754901396361989 0.008518345936558386 0  0.1811391035120075 0.008424050210098115 0  0.1872444279222087 0.00831915423323064 0  0.1926961446341008 0.008222899998379215 0  0.198841090009393 0.008111516418624823 0  0.2044064770158165 0.008008028244452866 0  0.2102948627703611 0.007895869216798803 0  0.2162299794791283 0.007780085801116003 0  0.2217647046821167 0.007669675498109103 0  0.2279204403470532 0.007544154739747676 0  0.2333791472114919 0.007430485124751003 0  0.2394590817234977 0.0073013084386626 0  0.245152498789355 0.007177928079207972 0  0.2508861115607116 0.007051356111670669 0  0.2569419868439766 0.006915186417023598 0  0.2624099649457279 0.006790084113692359 0  0.2685711825796066 0.006646722567663751 0  0.274083748205357 0.006516341894728842 0  0.2800541704182985 0.00637292855786236 0  0.2859022845836161 0.006230279166502627 0  0.291495955429921 0.006091868246150131 0  0.2976275706217687 0.005937986548763313 0  0.3030757324287757 0.005799406374294222 0  0.3091980118239236 0.005641654227187252 0  0.3148109405089491 0.005495191514879527 0  0.3206341933715942 0.005341435282378838 0  0.3266248575896781 0.005181393525330103 0  0.3321252080346692 0.005032833254881577 0  0.3382880718234609 0.004864596209960478 0  0.3437628463580178 0.004713611578807419 0  0.3498021006600692 0.004545443593512952 0  0.3555594631656461 0.004383601001460968 0  0.3612291099056053 0.004222822711549606 0  0.3673210805066339 0.004048576418709386 0  0.3727746135437823 0.003891330909934085 0  0.3789246700786391 0.003712634483246944 0  0.3844721023230384 0.00355025746928806 0  0.3903845048135511 0.003376011435332509 0  0.3962935688476314 0.003200699755406988 0  0.4018430601204535 0.00303505085978487 0  0.4079921977692303 0.002850427660455144 0  0.4134449905916002 0.002685819499171436 0  0.4195385366679084 0.002500937932218923 0  0.425204482428441 0.002328206591247292 0  0.4309651825948974 0.00215183074136113 0  0.4370014133195289 0.001966263547608745 0  0.4424769325836848 0.00179732019881714 0  0.4486395183564056 0.001606544730410899 0  0.4541373275735043 0.001435838569361521 0  0.4601308451156257 0.001249254088784412 0  0.4659488863550298 0.001067707976620331 0  0.471564807260988 0.0008921302908496037 0  0.4776843759254726 0.0007004920228137959 0  0.4831317484445766 0.0005296836585198918 0  0.4892643513384632 0.0003372062279158936 0  0.4948528283485032 0.000161696161435303 0  0.5007056813361916 -2.216943068070812e-05 0  0.5066699093509902 -0.000209526046556915 0  0.5121845298566023 -0.0003826949545447442 0  0.5183439831944545 -0.0005759742926309219 0  0.5238088617282698 -0.0007472800272428554 0  0.5298681543527348 -0.0009369594486414562 0  0.5355929349139432 -0.001115856450691032 0  0.5412927239341832 -0.001293613669039852 0  0.5473668732672543 -0.001482588207084091 0  0.5528259073001393 -0.001651967505962102 0  0.5589819336317072 -0.001842386787779294 0  0.5645100189486582 -0.002012797049529044 0  0.5704524332663232 -0.002195301346534757 0  0.5763298911552834 -0.002375058665203144 0  0.5819006708717119 -0.002544689651648297 0  0.5880413281562127 -0.002730768313747055 0  0.5934904284812221 -0.002895042191696308 0  0.5995995320960693 -0.003078202338538874 0  0.605236779888003 -0.003246210954182579 0  0.6110299855290301 -0.003417806240976177 0  0.6170432999212266 -0.00359472323302265 0  0.6225307972792151 -0.00375505261922207 0  0.6286944373476531 -0.003933803567825084 0  0.6341794289295242 -0.004091634709336539 0  0.6401977648984302 -0.004263413669385436 0  0.6459846030577213 -0.004427148756161272 0  0.6516277670629291 -0.004585409549508515 0  0.6577342305863492 -0.004755038487876419 0  0.6631843111407589 -0.004904958327357115 0  0.6693271588517591 -0.005072208653571043 0  0.6748942591145469 -0.005222152905474348 0  0.6807781354428797 -0.005378892074409919 0  0.6867158102497221 -0.005535201343768038 0  0.6922478556369909 -0.005679100421160843 0  0.6984036264198542 -0.005837205328254034 0  0.7038624132928571 -0.005975584427524931 0  0.7099402809449575 -0.006127588021236129 0  0.7156361945945205 -0.006268012368771779 0  0.7213667017809595 -0.006407263887957157 0  0.7274241898103784 -0.006552202568912044 0  0.7328913375361901 -0.006680980644346233 0  0.7390522654079078 -0.006823736587757829 0  0.7445663161830813 -0.006949337256267011 0  0.7505345306161221 -0.007082931996795786 0  0.7563856967966242 -0.007211490056377221 0  0.7619775509571868 -0.007332073958440476 0  0.7681106054434813 -0.007461725199742056 0  0.7735594228940573 -0.007574589702563127 0  0.7796809699364847 -0.007698739982391196 0  0.7852974086111042 -0.007810142587226769 0  0.7911178568436495 -0.007923025648348906 0  0.797112403703894 -0.008036515862006795 0  0.8026119630288198 -0.008138129173272899 0  0.8087760180262171 -0.008249131188213875 0  0.814253500572072 -0.008345174877796967 0  0.8202905515677629 -0.008448166667805387 0  0.8260544286221699 -0.008543663134562481 0  0.831720415905675 -0.008634807324656511 0  0.8378167080097026 -0.008729817306667463 0  0.8432709709919499 -0.008812108559864256 0  0.8494209576248264 -0.008901791974276371 0  0.8549745826348545 -0.008979924427376591 0  0.8608814329347291 -0.009060026011188804 0  0.8667998142885592 -0.009137155111096256 0  0.8723460990452367 -0.009206568509458774 0  0.8784989383774584 -0.009280301817794542 0  0.8839552890388401 -0.009342788637451834 0  0.8900456692707091 -0.009409293585850673 0  0.8957233874467343 -0.009468190513990782 0  0.9014754209053449 -0.009524786393944277 0  0.9075213579987256 -0.009580921173179099 0  0.9129954731058688 -0.009628765913494807 0  0.9191593188847452 -0.009679229788646495 0  0.9246655330424429 -0.009721240864333262 0  0.9306503084472221 -0.009763603884533442 0  0.9364847200361547 -0.009801580348484516 0  0.9420914259676206 -0.009834972127394636 0  0.948219177636862 -0.009867976960504428 0  0.9536688877131657 -0.009894257783109666 0  0.9597979104438458 -0.009920349306153329 0  0.9654020314719589 -0.009940987600901847 0  0.9712398170272581 -0.009959209624459757 0  0.9772219132298864 -0.009974407121723252 0  0.9827297975109929 -0.009985285083248089 0  0.9888934840407251 -0.009993913310034224 0  0.9943667421923366 -0.009998434045983932 0  1.000414962337846 -0.009999991502249178 0  1.00616395254491 -0.009998125110441144 0  1.011844857354635 -0.009993077234903055 0  1.017933801412069 -0.009984132829796667 0  1.023390946643176 -0.00997301205183276 0  1.029544679732296 -0.009956955598792184 0  1.035089558108845 -0.009939300412459717 0  1.041010936359372 -0.009917116481575694 0  1.04691554237944 -0.00989157814857561 0  1.052471258615448 -0.009864440751261633 0  1.05862104751389 -0.009830897850136421 0  1.064075481579663 -0.009798076706746352 0  1.070173358231585 -0.009757978136698224 0  1.075837941143087 -0.00971752009646258 0  1.081604377355612 -0.009673173917302162 0  1.087640686528322 -0.009623351755525641 0  1.093119387704205 -0.009575135453199036 0  1.099284093826516 -0.009517491101966447 0  1.104783734376909 -0.009463052176492596 0  1.110779897618174 -0.009400480030121557 0  1.116599992234411 -0.00933655469875222 0  1.122217899723542 -0.009271889359757672 0  1.128339818747432 -0.009198135031144493 0  1.133789446190431 -0.00912961705214143 0  1.139923317158062 -0.009049295973540348 0  1.145515844317945 -0.008973134373133167 0  1.151367773813766 -0.008890475161473248 0  1.157336906671575 -0.008803064948780913 0  1.16285160438384 -0.008719557366803981 0  1.16901331600552 -0.008623157866544266 0  1.174481522907442 -0.00853490108265173 0  1.180539122189597 -0.008434191931863186 0  1.186271617394136 -0.008336073959344166 0  1.191966996821913 -0.008235914041393521 0  1.198046448076202 -0.008126091334838595 0  1.203505695906331 -0.008024945109277802 0  1.209661806077474 -0.007908057515838151 0  1.21519584913737 -0.007800455577732041 0  1.221132109188887 -0.00768241304184519 0  1.227019087412133 -0.007562711583992629 0  1.232585135446325 -0.007447155722966398 0  1.238729389023077 -0.007316953404904543 0  1.244180486899644 -0.007199156086382225 0  1.250286093435722 -0.007064709646262071 0  1.255932842016573 -0.006938052500145445 0  1.261716857103797 -0.006806053534187844 0  1.26773845151126 -0.006666245775332091 0  1.273222687278595 -0.006536836953056475 0  1.279386853652711 -0.00638906998029936 0  1.284876650734994 -0.006255450389977176 0  1.290887326898431 -0.00610702037198264 0  1.296685536664392 -0.00596177282270944 0  1.30231949087952 -0.005818744638503708 0  1.308431215520824
[...]
<PointData  Scalars="Pressure"> 
<DataArray  type="Float64"  Name="Pressure"  format="ascii">-1.1331313912545156e+00  -1.1331313912545156e+00  -9.2948368409994064e-01  -9.2948368409994064e-01  -1.1329923960092603e+00  -1.1329418122442081e+00  -1.1329490486419556e+00  -1.1326519354813520e+00  -1.1325239518056434e+00  -1.1322166776142546e+00  -1.1320012026993211e+00  -1.1316162348995435e+00  -1.1312529342445263e+00  -1.1307877559276918e+00  -1.1303010425247566e+00  -1.1297905782025319e+00  -1.1292542731041810e+00  -1.1285322469195580e+00  -1.1280738684374703e+00  -1.1272387375721042e+00  -1.1267317358186801e+00  -1.1258610846592043e+00  -1.1252884135844612e+00  -1.1244034108067362e+00  -1.1234772469875889e+00  -1.1226128430525806e+00  -1.1215923912309227e+00  -1.1205154696217043e+00  -1.1194420553669135e+00  -1.1184877585249340e+00  -1.1173273025185637e+00  -1.1161585386947614e+00  -1.1150506190839322e+00  -1.1138181217947323e+00  -1.1126494454503020e+00  -1.1113460800754122e+00  -1.1101514605042546e+00  -1.1087182669181377e+00  -1.1073698316551894e+00  -1.1058935955660545e+00  -1.1044056038141870e+00  -1.1029788287083142e+00  -1.1013552280822996e+00  -1.0999039719365653e+00  -1.0982643899128608e+00  -1.0966868431796526e+00  -1.0950404759286383e+00  -1.0932663148584332e+00  -1.0915570570816473e+00  -1.0898156791560669e+00  -1.0879487991290919e+00  -1.0861976075612347e+00  -1.0842205581563289e+00  -1.0825446049424512e+00  -1.0804307385587522e+00  -1.0785327376845344e+00  -1.0763863805512852e+00  -1.0743826025322309e+00  -1.0722804278090732e+00  -1.0701133133464356e+00  -1.0681055181090187e+00  -1.0658884929734795e+00  -1.0637717016348822e+00  -1.0616662869941595e+00  -1.0593413761127646e+00  -1.0573240738212668e+00  -1.0549103728529370e+00  -1.0527126927626889e+00  -1.0505872956652196e+00  -1.0484999328988289e+00  -1.0462136987693973e+00  -1.0440020667938112e+00  -1.0417469955060168e+00  -1.0392817960797287e+00  -1.0371122849068883e+00  -1.0346126535433144e+00  -1.0321310738207166e+00  -1.0298297741680895e+00  -1.0272445051491477e+00  -1.0249819793191326e+00  -1.0223815013086639e+00  -1.0200495817565931e+00  -1.0175063603247927e+00  -1.0150116394422519e+00  -1.0125908908532701e+00  -1.0100041652499157e+00  -1.0076715000535339e+00  -1.0050294260661039e+00  -1.0026222593104841e+00  -1.0000927643927802e+00  -9.9752969052326634e-01  -9.9514508204338714e-01  -9.9248242606456361e-01  -9.9011346610703033e-01  -9.8752430689519233e-01  -9.8504266389199124e-01  -9.8257899632110934e-01  -9.7999845834380506e-01  -9.7764119285635220e-01  -9.7500347311002433e-01  -9.7260543351165962e-01  -9.7003410878896801e-01  -9.6756718945621567e-01  -9.6517852507941948e-01  -9.6250936979373969e-01  -9.6025370930330611e-01  -9.5757070955896817e-01  -9.5523845393211815e-01  -9.5279755810637656e-01  -9.5030339500741712e-01  -9.4804787883961072e-01  -9.4552515696633421e-01  -9.4328385265038250e-01  -9.4076536493918428e-01  -9.3844021509910314e-01  -9.3611090625292315e-01  -9.3368042432788945e-01  -9.3153596536359617e-01  -9.2910956372525655e-01  -9.2698220618865967e-01  -9.2467721537090808e-01  -9.2238230804519350e-01  -9.2026916557531846e-01  -9.1792520024261404e-01  -9.1591598913067740e-01  -9.1372158268605064e-01  -9.1176974189187066e-01  -9.0979681182661332e-01  -9.0770402260416005e-01  -9.0594765051938220e-01  -9.0382913868505776e-01  -9.0201548753250604e-01  -9.0004111734407022e-01  -8.9816451522305907e-01  -8.9641947909940134e-01  -8.9452604534328573e-01  -8.9290971571886391e-01  -8.9112172196802597e-01  -8.8957444692465737e-01  -8.8788663609433560e-01  -8.8627488589797043e-01  -8.8481055166027189e-01  -8.8323168288075671e-01  -8.8187565443655924e-01  -8.8037170922349006e-01  -8.7901316133218432e-01  -8.7762937883598369e-01  -8.7631907307214330e-01  -8.7504727287527950e-01  -8.7369701824161694e-01  -8.7261395702187494e-01  -8.7132341623113674e-01  -8.7015799199899624e-01  -8.6906501659408553e-01  -8.6790506078737295e-01  -8.6703978558594119e-01  -8.6594126188902909e-01  -8.6507224614167499e-01  -8.6419073177935779e-01  -8.6330758087326953e-01  -8.6271437978764010e-01  -8.6187060358072565e-01  -8.6126371977834781e-01  -8.6058212308884752e-01  -8.5999117526192037e-01  -8.5949913500315978e-01  -8.5909173384873849e-01  -8.5868468199442760e-01  -8.5829268383806201e-01  -8.5803026071839483e-01  -8.5779240934922274e-01  -8.5761312801593170e-01  -8.5752021345231078e-01  -8.5749363688239166e-01  -8.5750625145738457e-01  -8.5755078838308241e-01  -8.5765671054436365e-01  -8.5774630637012605e-01  -8.5800370541592152e-01  -8.5811739095077511e-01  -8.5833855644164025e-01  -8.5855792166045297e-01  -8.5882799737469340e-01  -8.5915532473964618e-01  -8.5951296090227169e-01  -8.6002021157980735e-01  -8.6049145445136033e-01  -8.6106603534641557e-01  -8.6168110588387958e-01  -8.6229377989147071e-01  -8.6313486727616440e-01  -8.6376877498639171e-01  -8.6460103116769893e-01  -8.6539616634818983e-01  -8.6627596837221343e-01  -8.6717274757667195e-01  -8.6807530218199180e-01  -8.6914290540273698e-01  -8.7013318881178603e-01  -8.7115549045059948e-01  -8.7225047054811411e-01  -8.7336103230969819e-01  -8.7461570047388137e-01  -8.7584938306474613e-01  -8.7723484022333720e-01  -8.7855140479382765e-01  -8.7998199153905732e-01  -8.8140847511236275e-01  -8.8289130180712572e-01  -8.8454393817995469e-01  -8.8616016796813846e-01  -8.8785928485685417e-01  -8.8956758241260825e-01  -8.9118304688984418e-01  -8.9306039751281452e-01  -8.9467860432312274e-01  -8.9656606049008403e-01  -8.9827449922920088e-01  -9.0023683379156816e-01  -9.0214383977361745e-01  -9.0410975258487991e-01  -9.0618872214842183e-01  -9.0811483442606600e-01  -9.1023167266575788e-01  -9.1223884111056031e-01  -9.1433777285185036e-01  -9.1655065686764670e-01  -9.1854582386675210e-01  -9.2085879994664532e-01  -9.2286863601869085e-01  -9.2515480000068517e-01  -9.2731852085558841e-01  -9.2952571693955610e-01  -9.3187134777411584e-01  -9.3401638906204465e-01  -9.3640213036445785e-01  -9.3857494674907427e-01  -9.4098307510843870e-01  -9.4327498989979142e-01  -9.4557874192626323e-01  -9.4807727595924762e-01  -9.5028363575300878e-01  -9.5286942581426515e-01  -9.5518180317745449e-01  -9.5768211444070783e-01  -9.6013749799773795e-01  -9.6249812326492767e-01  -9.6515182226260987e-01  -9.6757541716239304e-01  -9.7020027260675390e-01  -9.7263038696149517e-01  -9.7514606405987236e-01  -9.7775707377938170e-01  -9.8008622014902114e-01  -9.8274462477231617e-01  -9.8510702088050450e-01  -9.8770465171993593e-01  -9.9019423876961898e-01  -9.9260731787672507e-01  -9.9521195982360211e-01  -9.9755295119151133e-01  -1.0001907586795979e+00  -1.0025949429824288e+00  -1.0051471821846596e+00  -1.0077058108535946e+00  -1.0100925836789001e+00  -1.0127816996523329e+00  -1.0151635864972985e+00  -1.0177335656201936e+00  -1.0201983586267838e+00  -1.0226140363704224e+00  -1.0251550976587886e+00  -1.0274636840006979e+00  -1.0300329874155687e+00  -1.0323190908585034e+00  -1.0348039578253840e+00  -1.0371729811131825e+00  -1.0394825759886361e+00  -1.0420375402861968e+00  -1.0441798990678788e+00  -1.0466995750802428e+00  -1.0488952445455810e+00  -1.0511368456212844e+00  -1.0534095935619072e+00  -1.0555149399613739e+00  -1.0578366951290716e+00  -1.0599176575762983e+00  -1.0622305295764789e+00  -1.0643388950083765e+00  -1.0664608193625691e+00  -1.0686359890460295e+00  -1.0705839258333263e+00  -1.0727110794035914e+00  -1.0746310787305930e+00  -1.0766788988701346e+00  -1.0785560263210685e+00  -1.0804023306081125e+00  -1.0823567252988917e+00  -1.0840766241361675e+00  -1.0859406320012728e+00  -1.0876716318064370e+00  -1.0895101525644786e+00  -1.0912669505996095e+00  -1.0929976524337661e+00  -1.0948516005029809e+00  -1.0963725621676670e+00  -1.0981773300397588e+00  -1.0998272459703637e+00  -1.1014292910024837e+00  -1.1031534215813832e+00  -1.1045322955884158e+00  -1.1061870849935989e+00  -1.1075308541102005e+00  -1.1088888997808068e+00  -1.1102701685059353e+00  -1.1115594678653267e+00  -1.1129385341176548e+00  -1.1141400945481748e+00  -1.1154180290974653e+00  -1.1165974912858521e+00  -1.1178006542515269e+00  -1.1189511885160350e+00  -1.1200952713302874e+00  -1.1210691640214505e+00  -1.1220707915533068e+00  -1.1229611152528445e+00  -1.1238026549433904e+00  -1.1245752961898710e+00  -1.1253707975063136e+00  -1.1260244267419588e+00  -1.1267112171869045e+00  -1.1272972134662116e+00  -1.1278787549937566e+00  -1.1284713842624723e+00  -1.1290067854818233e+00  -1.1295746588612836e+00  -1.1300509721448613e+00  -1.1305369279776563e+00  -1.1308357917651692e+00  -1.1312973173446155e+00  -1.1316849364213362e+00  -1.1319240845297542e+00  -1.1323994723010251e+00  -1.1325228437867305e+00  -1.1328610050727985e+00  -1.1329945194514646e+00  -1.1331345021756614e+00  -1.1331998048310452e+00  -1.1331705965109424e+00  -1.1330908674751905e+00  -1.1329565399439196e+00  -1.1328225374064536e+00  -1.1325053095986779e+00  -1.1323445856806778e+00  -1.1319536889175026e+00  -1.1315811800803699e+00  -1.1311786147501868e+00  -1.1306604665687374e+00  -1.1303325693781081e+00  -1.1298142967386315e+00  -1.1292650027453008e+00  -1.1288002530700039e+00  -1.1281825782869905e+00  -1.1275623506044887e+00  -1.1268704370775344e+00  -1.1262287420411599e+00  -1.1254814298174072e+00  -1.1247602744953531e+00  -1.1239259345883974e+00  -1.1230662019115198e+00  -1.1221612275300878e+00  -1.1210309327724408e+00  -1.1200855217473449e+00  -1.1188985738133554e+00  -1.1177108078945310e+00  -1.1166392410156489e+00  -1.1153997929345107e+00  -1.1142676175238559e+00  -1.1129661574910612e+00  -1.1117753851184207e+00  -1.1104564727026012e+00  -1.1091287717664593e+00  -1.1077808208549926e+00  -1.1062182010248793e+00  -1.1049074739513343e+00  -1.1032983095353452e+00  -1.1018473885132394e+00  -1.1002790763796781e+00  -1.0986822880989462e+00  -1.0971405841424904e+00  -1.0954034860958990e+00  -1.0938029484100407e+00  -1.0919403819324429e+00  -1.0902000093089477e+00  -1.0884497421864092e+00  -1.0865331420576188e+00  -1.0847889374093940e+00  -1.0827886414271271e+00  -1.0809198874682739e+00  -1.0789733073396892e+00  -1.0769842523763733e+00  -1.0750602734971308e+00  -1.0729645327739594e+00  -1.0710372059070754e+00  -1.0688616228987282e+00  -1.0668808527751537e+00  -1.0647385177977280e+00  -1.0625403021900868e+00  -1.0605186168722989e+00  -1.0581653846226751e+00  -1.0560419174808462e+00  -1.0537041088327936e+00  -1.0514256874025314e+00  -1.0492010340157902e+00  -1.0467353788659410e+00  -1.0444953952300913e+00  -1.0420988376012785e+00  -1.0398542640607489e+00  -1.0374522724336721e+00  -1.0350843082209704e+00  -1.0328372000425228e+00  -1.0303468634944257e+00  -1.0281004091287960e+00  -1.0256064019076541e+00  -1.0232926622740746e+00  -1.0208845472080246e+00  -1.0183214623678110e+00  -1.0159752552406249e+00  -1.0133428331004890e+00  -1.0110105269891470e+00  -1.0083805513194013e+00  -1.0059647811318322e+00  -1.0035456014011157e+00  -1.0008716711317507e+00  -9.9857000809540730e-01  -9.9581752996644612e-01  -9.9340750802980204e-01  -9.9075629203991045e-01  -9.8819240397434294e-01  -9.8572944980817045e-01  -9.8302228538803293e-01  -9.8065286060182055e-01  -9.7799517857865470e-01  -9.7556930149656795e-01  -9.7308078228857708e-01  -9.7051738832637002e-01  -9.6819301078311981e-01  -9.6555079055633386e-01  -9.6323419139364708e-01  -9.6067510181009108e-01  -9.5824524779085629e-01  -9.5589351213005413e-01  -9.5327416549229238e-01  -9.5106093414607895e-01  -9.4852805707811860e-01  -9.4624964078203710e-01  -9.4382376558759751e-01  -9.4141260245831648e-01  -9.3911641997127737e-01  -9.3660191444378105e-01  -9.3444438401076946e-01  -9.3198863570287371e-01  -9.2983626306226164e-01  -9.2758664595748830e-01  -9.2525950063410412e-01  -9.2317332483916204e-01  -9.2085107024063140e-01  -9.1883128305906925e-01  -9.1665415103895642e-01  -9.1455773239954063e-01  -9.1256140670028274e-01  -9.1039401512018003e-01  -9.0845711757756142e-01  -9.0634857100402055e-01  -9.0457999504168574e-01  -9.0262031670566600e-01  -9.0068901010105251e-01  -8.9890486062963604e-01  -8.9695273265404363e-01  -8.9525044745808935e-01  -8.9340040131820742e-01  -8.9176772903208923e-01  -8.9007819469102534e-01  -8.8830977274859713e-01  -8.8686547554997941e-01  -8.8509313390167166e-01  -8.8374098368719822e-01  -8.8209376777202386e-01  -8.8075114582082192e-01  -8.7930048626445390e-01  -8.7785441581095858e-01  -8.7659277134406122e-01  -8.7518017325496800e-01  -8.7391428189979603e-01  -8.7267147500969899e-01  -8.7140411900528403e-01  -8.7042519555454934e-01  -8.6910227961514064e-01  -8.6821930387162272e-01  -8.6705618998420697e-01  -8.6621747624476042e-01  -8.6527638298823839e-01  -8.6438358997679654e-01  -8.6361790030501695e-01  -8.6276607936274674e-01  -8.6217663046559256e-01  -8.6135244672634714e-01  -8.6084151849893153e-01  -8.6021268534276407e-01  -8.5965757007143984e-01  -8.5932937563618850e-01  -8.5878074960310891e-01  -8.5855591501451778e-01  -8.5814043746214419e-01  -8.5799855244897172e-01  -8.5770486033815629e-01  -8.5752868310130648e-01  -8.5741059629889949e-01  -8.5728312365898296e-01  -8.5737514734875431e-01  -8.5728134249727650e-01  -8.5737433643134886e-01  -8.5757464862086175e-01  -8.5762345871102086e-01  -8.5794363735212886e-01  -8.5808343365574624e-01  -8.5854364242296810e-01  -8.5880242736752899e-01  -8.5925920666753186e-01  -8.5970389147419746e-01  -8.6022267236279526e-01  -8.6092005638889102e-01  -8.6142167550856119e-01  -8.6214799886941851e-01  -8.6288958490846468e-01  -8.6352283966946497e-01  -8.6440808714007566e-01  -8.6507781513948434e-01  -8.6608552406856298e-01  -8.6682816489467640e-01  -8.6787767205958088e-01  -8.6880651987805468e-01  -8.6989706032428049e-01  -8.7103720165761234e-01  -8.7205961592050085e-01  -8.7330606658156817e-01  -8.7441893294829331e-01  -8.7572226274143616e-01  -8.7697050969126988e-01  -8.7835793429303222e-01  -8.7980428902206764e-01  -8.8115085807384474e-01  -8.8275562830112320e-01  -8.8417737963773602e-01  -8.8584110645222947e-01  -8.8747447880592822e-01  -8.8906130140484740e-01  -8.9082718500987745e-01  -8.9244487463733069e-01  -8.9429532852108995e-01  -8.9597848104331335e-01  -8.9785957971875074e-01  -8.9983033152117364e-01  -9.0157739920843194e-01  -9.0363310099675676e-01  -9.0536870197470998e-01  -9.0755854587295759e-01  -9.0956486301868200e-01  -9.1162819100960768e-01  -9.1381544593334085e-01  -9.1581986584635566e-01  -9.1804647043950960e-01  -9.2003254576738547e-01  -9.2223306620198597e-01  -9.2436092133090930e-01  -9.2653896940047342e-01  -9.2888570676165227e-01  -9.3103059309894831e-01  -9.3337043945680453e-01  -9.3545762651034103e-01  -9.3787870385559369e-01  -9.4015867815877974e-01  -9.4246709998750322e-01  -9.4503833366427836e-01  -9.4732258651500989e-01  -9.4988743308818047e-01  -9.5223736360422662e-01  -9.5467266925922301e-01  -9.5716159968210768e-01  -9.5942788611085617e-01  -9.6200231271730996e-01  -9.6428647948552459e-01  -9.6681340716712394e-01  -9.6925179564278385e-01  -9.7170246026713525e-01  -9.7425875678589435e-01  -9.7665853304262273e-01  -9.7933443943587717e-01  -9.8172574883004948e-01  -9.8436817110955210e-01  -9.8692940138162100e-01  -9.8934109010878435e-01  -9.9207569495657189e-01  -9.9450659605784775e-01  -9.9714164071911537e-01  -9.9966586296244675e-01  -1.0021470512447841e+00  -1.0047584690688585e+00  -1.0071105152739344e+00  -1.0098224475032151e+00  -1.0121280198863967e+00  -1.0146966730117979e+00  -1.0171087965187666e+00  -1.0194771229092310e+00  -1.0220485549225498e+00  -1.0243143385111650e+00  -1.0268548598599412e+00  -1.0291551576838667e+00  -1.0315682586006303e+00  -1.0340367136048951e+00  -1.0363165008335526e+00  -1.0388344212650333e+00  -1.0410588971480585e+00  -1.0435200248917802e+00  -1.0458485035861798e+00  -1.0480797088727491e+00  -1.0505395891927445e+00  -1.0526734640029889e+00  -1.0550887773115631e+00  -1.0572258959375316e+00  -1.0594809572970421e+00  -1.0616831912743774e+00  -1.0637938059288266e+00  -1.0660716644432540e+00  -1.0680123387586913e+00  -1.0702292580323811e+00  -1.0720875551635989e+00  -1.0741473431701114e+00  -1.0760939579910815e+00  -1.0779798472691136e+00  -1.0800247701764820e+00  -1.0816935664417704e+00  -1.0837325608934929e+00  -1.0855321968155800e+00  -1.0873183134220341e+00  -1.0891935782546855e+00  -1.0908814976040559e+00  -1.0927408020726985e+00  -1.0944592959230086e+00  -1.0962847099290673e+00  -1.0980852592172095e+00  -1.0996962775681685e+00  -1.1014449771387207e+00  -1.1029166164970978e+00  -1.1044750137218393e+00  -1.1058509453123677e+00  -1.1073322606081093e+00  -1.1087295926677991e+00  -1.1099145118169258e+00  -1.1113074846512783e+00  -1.1124415125269236e+00  -1.1137511277515606e+00  -1.1149474755583770e+00  -1.1160884987458768e+00  -1.1172424370425882e+00  -1.1182702492614225e+00  -1.1193883477657274e+00  -1.1203377186562837e+00  -1.1213763552235558e+00  -1.1223638241709308e+00  -1.1232506047079269e+00  -1.1242494336921078e+00  -1.1250783655590137e+00  -1.1259651892074527e+00  -1.1266323300736403e+00  -1.1274031928973058e+00  -1.1280911276622108e+00  -1.1285613871472089e+00  -1.1293347417367994e+00  -1.1296967501083601e+00  -1.1303136260519844e+00  -1.1307186829514080e+00  -1.1310908116220506e+00  -1.1314946846293665e+00  -1.1318329287884077e+00  -1.1321999085738681e+00  -1.1324828444795179e+00  -1.1327421016166805e+00  -1.1328252855714704e+00  -1.1330049710495576e+00  -1.1330702565843016e+00  -1.1331104455643033e+00  -1.1331121132710127e+00  -1.1330455863341646e+00  -1.1329567109981828e+00  -1.1328705780509749e+00  -1.1326072724891645e+00  -1.1325097247693172e+00  -1.1322004985776333e+00  -1.1319232288438124e+00  -1.1315341988554575e+00  -1.1311550173394420e+00  -1.1306785388207872e+00  -1.1300526234812998e+00  -1.1295386800838461e+00  -1.1288788412020936e+00  -1.1282723632702496e+00  -1.1275194371910291e+00  -1.1269577724753952e+00  -1.1262173042416121e+00  -1.1254181996016179e+00  -1.1246951330883406e+00  -1.1237419580713199e+00  -1.1229911407423820e+00  -1.1220122384727953e+00  -1.1211432399684511e+00  -1.1201382129320050e+00  -1.1190697866555204e+00  -1.1179900841360999e+00  -1.1168636783416155e+00  -1.1157938388455257e+00  -1.1146401842765632e+00  -1.1135146413578390e+00  -1.1122192612398885e+00  -1.1109046226455634e+00  -1.1095797788343498e+00  -1.1081135915366835e+00  -1.1067707910816826e+00  -1.1052228229251182e+00  -1.1037220057723589e+00  -1.1022398437615939e+00  -1.1005683128740904e+00  -1.0990209490968343e+00  -1.0972921099558117e+00  -1.0957125218221386e+00  -1.0940847558292006e+00  -1.0923802371662696e+00  -1.0907228927393902e+00  -1.0888987184713033e+00  -1.0871934789378785e+00  -1.0852834177057153e+00  -1.0835680249829274e+00  -1.0816785739926500e+00  -1.0797053929430498e+00  -1.0779124476229029e+00  -1.0758059050362550e+00  -1.0738861463251335e+00  -1.0717326323840184e+00  -1.0697120672337077e+00  -1.0676040561753819e+00  -1.0653766588819749e+00  -1.0632834841327192e+00  -1.0609907646134402e+00  -1.0588017781823222e+00  -1.0565427697143190e+00  -1.0542084145034676e+00  -1.0521102957242459e+00  -1.0496587270109057e+00  -1.0475397021850499e+00  -1.0451133859781971e+00  -1.0429025783836225e+00  -1.0405301248818355e+00  -1.0381388259852473e+00  -1.0358906499743346e+00  -1.0334100799061403e+00  -1.0312196392480442e+00  -1.0287382826592613e+00  -1.0263209323274869e+00  -1.0239175818859765e+00  -1.0213519555626693e+00  -1.0190067150607260e+00  -1.0163519906614060e+00  -1.0139803328509576e+00  -1.0114260120833394e+00  -1.0088952556316757e+00  -1.0064790914914350e+00  -1.0038176535306829e+00  -1.0014228806777523e+00  -9.9881084974274326e-01  -9.9636351534923429e-01  -9.9384247318730690e-01  -9.9119955897349865e-01  -9.8881244462380768e-01  -9.8614449098063361e-01  -9.8377068591990258e-01  -9.8113734361972682e-01  -9.7871933445472870e-01  -9.7627952172912547e-01  -9.7371764919571857e-01  -9.7136147655422456e-01  -9.6876415249722148e-01  -9.6643805131407812e-01  -9.6388649619205558e-01  -9.6135783380308271e-01  -9.5901979028099138e-01  -9.5637449977237310e-01  -9.5401