<?xml version="1.0"?>
<VTKFile type="UnstructuredGrid"  version="0.1"  >
<UnstructuredGrid>
<Piece  NumberOfPoints="4274" NumberOfCells="6764">
<Points>
<DataArray  type="Float64"  NumberOfComponents="3"  format="ascii">0 0.01 0  10 0.01 0  0 1.018213984155887 0  10 1.018213984155887 0  0.007129524987038337 0.009997491741717768 0  0.01258064459049757 0.00999219056738478 0  0.01872173241756402 0.009982708334120727 0  0.02429919625640796 0.009970876572043954 0  0.03017238705920286 0.009955108531615313 0  0.03612352734296466 0.0099356743715591 0  0.04164979236492252 0.009914517792428084 0  0.04780928449023854 0.009887415768096998 0  0.05327287671237849 0.009860276931383746 0  0.0593436395885565 0.009826715421083503 0  0.06505608699933001 0.009791870631895848 0  0.07077243060783153 0.009753845329312128 0  0.07684085351634186 0.009710036052663748 0  0.08230528612367993 0.009667566921662384 0  0.08846525752759338 0.009616276826848907 0  0.09398926586603956 0.0095672187064786 0  0.09994377871281757 0.009511110804477986 0  0.10581288515308 0.009452550633355501 0  0.1113930001121819 0.009393893683773193 0  0.1175326299024069 0.009326020378011352 0  0.122983161250664 0.009262856809916281 0  0.1290978349347763 0.009188765415777931 0  0.1347300222736412 0.00911751981665075 0  0.1405327472005438 0.009041131768776852 0  0.1465421455697866 0.008958856277281909 0  0.1520341809431761 0.008880870879718691 0  0.1581991754706344 0.00879018143976357 0  0.1636834803794234 0.008706732874359017 0  0.1697073563005918 0.008612096527554045 0  0.1754901396361989 0.008518345936558386 0  0.1811391035120075 0.008424050210098115 0  0.1872444279222087 0.00831915423323064 0  0.1926961446341008 0.008222899998379215 0  0.198841090009393 0.008111516418624823 0  0.2044064770158165 0.008008028244452866 0  0.2102948627703611 0.007895869216798803 0  0.2162299794791283 0.007780085801116003 0  0.2217647046821167 0.007669675498109103 0  0.2279204403470532 0.007544154739747676 0  0.2333791472114919 0.007430485124751003 0  0.2394590817234977 0.0073013084386626 0  0.245152498789355 0.007177928079207972 0  0.2508861115607116 0.007051356111670669 0  0.2569419868439766 0.006915186417023598 0  0.2624099649457279 0.006790084113692359 0  0.2685711825796066 0.006646722567663751 0  0.274083748205357 0.006516341894728842 0  0.2800541704182985 0.00637292855786236 0  0.2859022845836161 0.006230279166502627 0  0.291495955429921 0.006091868246150131 0  0.2976275706217687 0.005937986548763313 0  0.3030757324287757 0.005799406374294222 0  0.3091980118239236 0.005641654227187252 0  0.3148109405089491 0.005495191514879527 0  0.3206341933715942 0.005341435282378838 0  0.3266248575896781 0.005181393525330103 0  0.3321252080346692 0.005032833254881577 0  0.3382880718234609 0.004864596209960478 0  0.3437628463580178 0.004713611578807419 0  0.3498021006600692 0.004545443593512952 0  0.3555594631656461 0.004383601001460968 0  0.3612291099056053 0.004222822711549606 0  0.3673210805066339 0.004048576418709386 0  0.3727746135437823 0.003891330909934085 0  0.3789246700786391 0.003712634483246944 0  0.3844721023230384 0.00355025746928806 0  0.3903845048135511 0.003376011435332509 0  0.3962935688476314 0.003200699755406988 0  0.4018430601204535 0.00303505085978487 0  0.4079921977692303 0.002850427660455144 0  0.4134449905916002 0.002685819499171436 0  0.4195385366679084 0.002500937932218923 0  0.425204482428441 0.002328206591247292 0  0.4309651825948974 0.00215183074136113 0  0.4370014133195289 0.001966263547608745 0  0.4424769325836848 0.00179732019881714 0  0.4486395183564056 0.001606544730410899 0  0.4541373275735043 0.001435838569361521 0  0.4601308451156257 0.001249254088784412 0  0.4659488863550298 0.001067707976620331 0  0.471564807260988 0.0008921302908496037 0  0.4776843759254726 0.0007004920228137959 0  0.4831317484445766 0.0005296836585198918 0  0.4892643513384632 0.0003372062279158936 0  0.4948528283485032 0.000161696161435303 0  0.5007056813361916 -2.216943068070812e-05 0  0.5066699093509902 -0.000209526046556915 0  0.5121845298566023 -0.0003826949545447442 0  0.5183439831944545 -0.0005759742926309219 0  0.5238088617282698 -0.0007472800272428554 0  0.5298681543527348 -0.0009369594486414562 0  0.5355929349139432 -0.001115856450691032 0  0.5412927239341832 -0.001293613669039852 0  0.5473668732672543 -0.001482588207084091 0  0.5528259073001393 -0.001651967505962102 0  0.5589819336317072 -0.001842386787779294 0  0.5645100189486582 -0.002012797049529044 0  0.5704524332663232 -0.002195301346534757 0  0.5763298911552834 -0.002375058665203144 0  0.5819006708717119 -0.002544689651648297 0  0.5880413281562127 -0.002730768313747055 0  0.5934904284812221 -0.002895042191696308 0  0.5995995320960693 -0.003078202338538874 0  0.605236779888003 -0.003246210954182579 0  0.6110299855290301 -0.003417806240976177 0  0.6170432999212266 -0.00359472323302265 0  0.6225307972792151 -0.00375505261922207 0  0.6286944373476531 -0.003933803567825084 0  0.6341794289295242 -0.004091634709336539 0  0.6401977648984302 -0.004263413669385436 0  0.6459846030577213 -0.004427148756161272 0  0.6516277670629291 -0.004585409549508515 0  0.6577342305863492 -0.004755038487876419 0  0.6631843111407589 -0.004904958327357115 0  0.6693271588517591 -0.005072208653571043 0  0.6748942591145469 -0.005222152905474348 0  0.6807781354428797 -0.005378892074409919 0  0.6867158102497221 -0.005535201343768038 0  0.6922478556369909 -0.005679100421160843 0  0.6984036264198542 -0.005837205328254034 0  0.7038624132928571 -0.005975584427524931 0  0.7099402809449575 -0.006127588021236129 0  0.7156361945945205 -0.006268012368771779 0  0.7213667017809595 -0.006407263887957157 0  0.7274241898103784 -0.006552202568912044 0  0.7328913375361901 -0.006680980644346233 0  0.7390522654079078 -0.006823736587757829 0  0.7445663161830813 -0.006949337256267011 0  0.7505345306161221 -0.007082931996795786 0  0.7563856967966242 -0.007211490056377221 0  0.7619775509571868 -0.007332073958440476 0  0.7681106054434813 -0.007461725199742056 0  0.7735594228940573 -0.007574589702563127 0  0.7796809699364847 -0.007698739982391196 0  0.7852974086111042 -0.007810142587226769 0  0.7911178568436495 -0.007923025648348906 0  0.797112403703894 -0.008036515862006795 0  0.8026119630288198 -0.008138129173272899 0  0.8087760180262171 -0.008249131188213875 0  0.814253500572072 -0.008345174877796967 0  0.8202905515677629 -0.008448166667805387 0  0.8260544286221699 -0.008543663134562481 0  0.831720415905675 -0.008634807324656511 0  0.8378167080097026 -0.008729817306667463 0  0.8432709709919499 -0.008812108559864256 0  0.8494209576248264 -0.008901791974276371 0  0.8549745826348545 -0.008979924427376591 0  0.8608814329347291 -0.009060026011188804 0  0.8667998142885592 -0.009137155111096256 0  0.8723460990452367 -0.009206568509458774 0  0.8784989383774584 -0.009280301817794542 0  0.8839552890388401 -0.009342788637451834 0  0.8900456692707091 -0.009409293585850673 0  0.8957233874467343 -0.009468190513990782 0  0.9014754209053449 -0.009524786393944277 0  0.9075213579987256 -0.009580921173179099 0  0.9129954731058688 -0.009628765913494807 0  0.9191593188847452 -0.009679229788646495 0  0.9246655330424429 -0.009721240864333262 0  0.9306503084472221 -0.009763603884533442 0  0.9364847200361547 -0.009801580348484516 0  0.9420914259676206 -0.009834972127394636 0  0.948219177636862 -0.009867976960504428 0  0.9536688877131657 -0.009894257783109666 0  0.9597979104438458 -0.009920349306153329 0  0.9654020314719589 -0.009940987600901847 0  0.9712398170272581 -0.009959209624459757 0  0.9772219132298864 -0.009974407121723252 0  0.9827297975109929 -0.009985285083248089 0  0.9888934840407251 -0.009993913310034224 0  0.9943667421923366 -0.009998434045983932 0  1.000414962337846 -0.009999991502249178 0  1.00616395254491 -0.009998125110441144 0  1.011844857354635 -0.009993077234903055 0  1.017933801412069 -0.009984132829796667 0  1.023390946643176 -0.00997301205183276 0  1.029544679732296 -0.009956955598792184 0  1.035089558108845 -0.009939300412459717 0  1.041010936359372 -0.009917116481575694 0  1.04691554237944 -0.00989157814857561 0  1.052471258615448 -0.009864440751261633 0  1.05862104751389 -0.009830897850136421 0  1.064075481579663 -0.009798076706746352 0  1.070173358231585 -0.009757978136698224 0  1.075837941143087 -0.00971752009646258 0  1.081604377355612 -0.009673173917302162 0  1.087640686528322 -0.009623351755525641 0  1.093119387704205 -0.009575135453199036 0  1.099284093826516 -0.009517491101966447 0  1.104783734376909 -0.009463052176492596 0  1.110779897618174 -0.009400480030121557 0  1.116599992234411 -0.00933655469875222 0  1.122217899723542 -0.009271889359757672 0  1.128339818747432 -0.009198135031144493 0  1.133789446190431 -0.00912961705214143 0  1.139923317158062 -0.009049295973540348 0  1.145515844317945 -0.008973134373133167 0  1.151367773813766 -0.008890475161473248 0  1.157336906671575 -0.008803064948780913 0  1.16285160438384 -0.008719557366803981 0  1.16901331600552 -0.008623157866544266 0  1.174481522907442 -0.00853490108265173 0  1.180539122189597 -0.008434191931863186 0  1.186271617394136 -0.008336073959344166 0  1.191966996821913 -0.008235914041393521 0  1.198046448076202 -0.008126091334838595 0  1.203505695906331 -0.008024945109277802 0  1.209661806077474 -0.007908057515838151 0  1.21519584913737 -0.007800455577732041 0  1.221132109188887 -0.00768241304184519 0  1.227019087412133 -0.007562711583992629 0  1.232585135446325 -0.007447155722966398 0  1.238729389023077 -0.007316953404904543 0  1.244180486899644 -0.007199156086382225 0  1.250286093435722 -0.007064709646262071 0  1.255932842016573 -0.006938052500145445 0  1.261716857103797 -0.006806053534187844 0  1.26773845151126 -0.006666245775332091 0  1.273222687278595 -0.006536836953056475 0  1.279386853652711 -0.00638906998029936 0  1.284876650734994 -0.006255450389977176 0  1.290887326898431 -0.00610702037198264 0  1.296685536664392 -0.00596177282270944 0  1.30231949087952 -0.005818744638503708 0  1.308431215520824
[...]
<PointData  Scalars="Pressure"> 
<DataArray  type="Float64"  Name="Pressure"  format="ascii">-1.1291591090160291e+00  -1.1291591090160291e+00  -9.1559640241665430e-01  -9.1559640241665430e-01  -1.1290880356638255e+00  -1.1290187448184748e+00  -1.1289244551633626e+00  -1.1287563515560608e+00  -1.1286052737542023e+00  -1.1282488728237940e+00  -1.1280685798124197e+00  -1.1276697220794472e+00  -1.1273250315139405e+00  -1.1269265695043282e+00  -1.1264259374148657e+00  -1.1260903468902266e+00  -1.1254426514257152e+00  -1.1249972046200216e+00  -1.1243120561749507e+00  -1.1236800907387485e+00  -1.1229876239201984e+00  -1.1222148086031611e+00  -1.1214718875194296e+00  -1.1205826325695061e+00  -1.1197735268622240e+00  -1.1188810803946236e+00  -1.1179620446804264e+00  -1.1170174763360130e+00  -1.1159100045985781e+00  -1.1150151435058535e+00  -1.1139229678451033e+00  -1.1129385915647376e+00  -1.1117711747648065e+00  -1.1105605915541128e+00  -1.1094577105415147e+00  -1.1081283542080294e+00  -1.1068383882242578e+00  -1.1055075144274920e+00  -1.1041123923452227e+00  -1.1027899452277965e+00  -1.1012566486459245e+00  -1.0999521359803790e+00  -1.0983585032364143e+00  -1.0968527980226375e+00  -1.0953375016292355e+00  -1.0936980850186075e+00  -1.0922058142612663e+00  -1.0904352762190095e+00  -1.0889285479499851e+00  -1.0871245315352307e+00  -1.0854318185731018e+00  -1.0835935911367673e+00  -1.0817154518462375e+00  -1.0800791625959645e+00  -1.0780935491756762e+00  -1.0763256350683625e+00  -1.0742826772994396e+00  -1.0724837577623469e+00  -1.0705086022200945e+00  -1.0684238100348706e+00  -1.0665876028426224e+00  -1.0643920985686028e+00  -1.0624188467725548e+00  -1.0602964456643611e+00  -1.0581340235634984e+00  -1.0560705784822986e+00  -1.0538127725573299e+00  -1.0517683870883889e+00  -1.0494274048984213e+00  -1.0472923753375250e+00  -1.0450329401204987e+00  -1.0427500566169021e+00  -1.0406282318589783e+00  -1.0382447213044455e+00  -1.0360758677076172e+00  -1.0336525029711221e+00  -1.0313639281305251e+00  -1.0290111186465860e+00  -1.0265802066150580e+00  -1.0244044593385540e+00  -1.0218636933466965e+00  -1.0196102678463674e+00  -1.0171147843846506e+00  -1.0147303091930295e+00  -1.0123424950529007e+00  -1.0097587796787306e+00  -1.0074893367712057e+00  -1.0049114866387794e+00  -1.0025613279784849e+00  -1.0000921607665496e+00  -9.9752565926801173e-01  -9.9522131166208894e-01  -9.9257151270906396e-01  -9.9024416433189566e-01  -9.8768449491943788e-01  -9.8526494131535103e-01  -9.8289111134717677e-01  -9.8033175089018587e-01  -9.7812927692134377e-01  -9.7558731795031883e-01  -9.7333098733736145e-01  -9.7088417217531153e-01  -9.6848356714433459e-01  -9.6622391345680303e-01  -9.6369781222816697e-01  -9.6142690326206770e-01  -9.5883817988491749e-01  -9.5651302763049828e-01  -9.5404975621293542e-01  -9.5156314197764624e-01  -9.4931149680142990e-01  -9.4683058619590221e-01  -9.4464747711818353e-01  -9.4225054027477839e-01  -9.4000250735849877e-01  -9.3778517495053737e-01  -9.3544925481265406e-01  -9.3337450073789197e-01  -9.3103537026513272e-01  -9.2903141486007434e-01  -9.2684045713755647e-01  -9.2480229660643010e-01  -9.2281892084642758e-01  -9.2058899733864463e-01  -9.1874848163371770e-01  -9.1668598415980973e-01  -9.1473535668693207e-01  -9.1276926242198386e-01  -9.1085062921900217e-01  -9.0897459948731762e-01  -9.0702938908332376e-01  -9.0526586333653269e-01  -9.0340363409839131e-01  -9.0149383884483114e-01  -8.9972138238948929e-01  -8.9780402330676068e-01  -8.9618159344754700e-01  -8.9438496844992033e-01  -8.9272844903691340e-01  -8.9109549651175446e-01  -8.8939654252544065e-01  -8.8789819668739112e-01  -8.8634998457728531e-01  -8.8502970810776993e-01  -8.8354920098564449e-01  -8.8220273017292050e-01  -8.8084106574758136e-01  -8.7951466272165624e-01  -8.7829402013247970e-01  -8.7701296137942009e-01  -8.7589211375565945e-01  -8.7471955347329566e-01  -8.7355448888139153e-01  -8.7252253806396163e-01  -8.7144099295829869e-01  -8.7054560101911793e-01  -8.6959893640020358e-01  -8.6877351743062059e-01  -8.6795656884266004e-01  -8.6728779229044684e-01  -8.6654334528809340e-01  -8.6582051551771810e-01  -8.6523650308026534e-01  -8.6462030433776238e-01  -8.6408769543588348e-01  -8.6361727119779175e-01  -8.6316933746126345e-01  -8.6280637748534628e-01  -8.6243277706683330e-01  -8.6213914458760721e-01  -8.6182885454682656e-01  -8.6170557042019480e-01  -8.6147336079681514e-01  -8.6134958731994671e-01  -8.6127562546557468e-01  -8.6121245785749578e-01  -8.6120370056862849e-01  -8.6124593666929783e-01  -8.6136769512397549e-01  -8.6149377495421076e-01  -8.6171418012400880e-01  -8.6196602243779885e-01  -8.6224069959090410e-01  -8.6271102146740908e-01  -8.6301600102893772e-01  -8.6350309450196294e-01  -8.6397969983294653e-01  -8.6453651263545173e-01  -8.6511331497044031e-01  -8.6574346214762299e-01  -8.6647598654246172e-01  -8.6723947825181502e-01  -8.6800910375566520e-01  -8.6885476828352237e-01  -8.6978397415249364e-01  -8.7073291025709121e-01  -8.7166705583785375e-01  -8.7283541291936806e-01  -8.7377298349960086e-01  -8.7494706842444037e-01  -8.7601932592011089e-01  -8.7719230064170173e-01  -8.7842248336124473e-01  -8.7964601567853429e-01  -8.8099856170533142e-01  -8.8226425884456050e-01  -8.8371856447444153e-01  -8.8509556226866504e-01  -8.8654998928145157e-01  -8.8818121397592675e-01  -8.8961367533743341e-01  -8.9131070992580996e-01  -8.9285606170593868e-01  -8.9457684657319703e-01  -8.9623924947869560e-01  -8.9788582519435711e-01  -8.9969487544229854e-01  -9.0136818075172020e-01  -9.0332325759714371e-01  -9.0508894006193030e-01  -9.0690684107594455e-01  -9.0886337576331688e-01  -9.1058160579708658e-01  -9.1262583632541205e-01  -9.1446545825098158e-01  -9.1649356032430740e-01  -9.1848657567386405e-01  -9.2042652438675032e-01  -9.2264342959528889e-01  -9.2458293329085339e-01  -9.2688640946136014e-01  -9.2893475913476675e-01  -9.3115375085291963e-01  -9.3345544091186539e-01  -9.3556377069035002e-01  -9.3804253035945540e-01  -9.4026142486555508e-01  -9.4266405040977264e-01  -9.4494192646956399e-01  -9.4717085819122337e-01  -9.4954679653739971e-01  -9.5175107070748632e-01  -9.5427481501587819e-01  -9.5658103222951762e-01  -9.5905253477175634e-01  -9.6153216064846514e-01  -9.6383820913491036e-01  -9.6639921943766860e-01  -9.6862921897211263e-01  -9.7110695128320990e-01  -9.7346972438254953e-01  -9.7591172905357260e-01  -9.7846016320494422e-01  -9.8080887916146020e-01  -9.8346191365925062e-01  -9.8581750488586262e-01  -9.8838856438336486e-01  -9.9084939088795798e-01  -9.9323281215298154e-01  -9.9590182985064568e-01  -9.9818684799866886e-01  -1.0008733095656199e+00  -1.0032036888604012e+00  -1.0056628933204002e+00  -1.0081485881806651e+00  -1.0104009675432846e+00  -1.0128483579328740e+00  -1.0150925488888713e+00  -1.0175344903456685e+00  -1.0198102069130111e+00  -1.0221009469540425e+00  -1.0245358251044225e+00  -1.0266559748070385e+00  -1.0290584757105139e+00  -1.0312769313683618e+00  -1.0337294526592651e+00  -1.0360137230075748e+00  -1.0382811789389301e+00  -1.0406278605010546e+00  -1.0427148195679818e+00  -1.0451204833002283e+00  -1.0472162230916247e+00  -1.0494914460398219e+00  -1.0516721388171315e+00  -1.0537321723424757e+00  -1.0560191055987707e+00  -1.0579579693176444e+00  -1.0601755938198330e+00  -1.0621906860741357e+00  -1.0641513747878830e+00  -1.0662508593805855e+00  -1.0681554150889805e+00  -1.0702799175039377e+00  -1.0721847621665164e+00  -1.0741854809228295e+00  -1.0761601722368166e+00  -1.0779993396771548e+00  -1.0800010690169175e+00  -1.0817767423217377e+00  -1.0837293090715301e+00  -1.0854160514478033e+00  -1.0872412591953859e+00  -1.0890428452686969e+00  -1.0905717941944688e+00  -1.0924007017741693e+00  -1.0938520747166354e+00  -1.0955554840101542e+00  -1.0970991164072508e+00  -1.0985831635859549e+00  -1.1001745697112044e+00  -1.1015401802716736e+00  -1.1031156164432727e+00  -1.1044219090277274e+00  -1.1058993891536444e+00  -1.1072325728323347e+00  -1.1084065178817546e+00  -1.1096835146753776e+00  -1.1107634579131305e+00  -1.1119737073887515e+00  -1.1129680636116799e+00  -1.1141686331746954e+00  -1.1153086851075904e+00  -1.1162115669487409e+00  -1.1173648453922340e+00  -1.1181425339532189e+00  -1.1191462151318805e+00  -1.1199819080971432e+00  -1.1207931296262061e+00  -1.1216346708611997e+00  -1.1223472445935063e+00  -1.1231057630244050e+00  -1.1237564920166989e+00  -1.1244067376866396e+00  -1.1249134617204597e+00  -1.1255552723485949e+00  -1.1261140745719604e+00  -1.1266221744849159e+00  -1.1271404760428974e+00  -1.1275644715288946e+00  -1.1279356080755707e+00  -1.1282895786806870e+00  -1.1285772610857894e+00  -1.1287923447562966e+00  -1.1289306546602822e+00  -1.1290999374259305e+00  -1.1291132145834846e+00  -1.1291727005422849e+00  -1.1290814539937788e+00  -1.1288216926640722e+00  -1.1286675877478913e+00  -1.1284122579064590e+00  -1.1282641264097488e+00  -1.1279788152404839e+00  -1.1278472751325088e+00  -1.1275407389061078e+00  -1.1272463339861822e+00  -1.1269014787406455e+00  -1.1263893739321813e+00  -1.1260594789685401e+00  -1.1256132972915245e+00  -1.1251205102595501e+00  -1.1245642532338349e+00  -1.1239825443613480e+00  -1.1233836321064059e+00  -1.1226115018856140e+00  -1.1219874022652137e+00  -1.1212519824768112e+00  -1.1204881630548673e+00  -1.1196473105107787e+00  -1.1189459708731098e+00  -1.1181518090856954e+00  -1.1173817629924561e+00  -1.1165794723692062e+00  -1.1157466449105948e+00  -1.1147459823805901e+00  -1.1138703496784137e+00  -1.1127928675213874e+00  -1.1117276366406983e+00  -1.1104971625744140e+00  -1.1092511030757914e+00  -1.1079931389353503e+00  -1.1066166583272457e+00  -1.1052495749831874e+00  -1.1037531233849533e+00  -1.1023319599425248e+00  -1.1007032937532844e+00  -1.0992177597942807e+00  -1.0976079340181024e+00  -1.0959765482719774e+00  -1.0944979386087677e+00  -1.0926986871233022e+00  -1.0910809756013102e+00  -1.0892716126929740e+00  -1.0875288832803911e+00  -1.0858434610089860e+00  -1.0839597069722731e+00  -1.0822355932723584e+00  -1.0802719746494476e+00  -1.0784740869776124e+00  -1.0764915021684545e+00  -1.0745815542852899e+00  -1.0727194083058733e+00  -1.0707570499723944e+00  -1.0689527584784009e+00  -1.0668101918995863e+00  -1.0648999370839725e+00  -1.0628305944417926e+00  -1.0607372343036385e+00  -1.0588210352087664e+00  -1.0565667520098154e+00  -1.0545481367264504e+00  -1.0522657370291593e+00  -1.0501312302464314e+00  -1.0479054194451212e+00  -1.0455858278826455e+00  -1.0435139405780556e+00  -1.0411209889721160e+00  -1.0389891911091591e+00  -1.0366387008816149e+00  -1.0342986205853768e+00  -1.0320556436546851e+00  -1.0295956318081230e+00  -1.0274148471596958e+00  -1.0249562506972014e+00  -1.0227174957236702e+00  -1.0202812422666216e+00  -1.0178335033478352e+00  -1.0156011879386238e+00  -1.0130297595202227e+00  -1.0107334564504880e+00  -1.0081303203101659e+00  -1.0057260482254879e+00  -1.0033029095777510e+00  -1.0006711934195991e+00  -9.9845942916117636e-01  -9.9580993150815467e-01  -9.9350951500426976e-01  -9.9106596993002782e-01  -9.8857434709180414e-01  -9.8624539204781247e-01  -9.8368822409064238e-01  -9.8140712094466176e-01  -9.7883574145674246e-01  -9.7649569666194957e-01  -9.7409197633611500e-01  -9.7159137185327993e-01  -9.6930911315743351e-01  -9.6673834778581791e-01  -9.6446330910109324e-01  -9.6196835834865324e-01  -9.5958126549828415e-01  -9.5718948989639818e-01  -9.5471497506445191e-01  -9.5244595654515618e-01  -9.4992498599557929e-01  -9.4781312872723178e-01  -9.4538831870815643e-01  -9.4307382138519735e-01  -9.4084636950098854e-01  -9.3835401809656382e-01  -9.3622845406495736e-01  -9.3386656179705274e-01  -9.3165800300314372e-01  -9.2945580916337345e-01  -9.2719982302460791e-01  -9.2519660040607099e-01  -9.2292734049824898e-01  -9.2105344317372517e-01  -9.1889497437066048e-01  -9.1697453840343135e-01  -9.1501502787695010e-01  -9.1295437762672527e-01  -9.1114360150330520e-01  -9.0909583293682417e-01  -9.0724675975302238e-01  -9.0537772726347521e-01  -9.0350740085324999e-01  -9.0183130905922559e-01  -8.9997995548915943e-01  -8.9847306382705816e-01  -8.9664714379836208e-01  -8.9518046521097805e-01  -8.9350889999019056e-01  -8.9198947905272630e-01  -8.9048393651618807e-01  -8.8884484644123496e-01  -8.8748375657941769e-01  -8.8582111165994126e-01  -8.8434832386976081e-01  -8.8286951601083785e-01  -8.8130020404832810e-01  -8.8009843229400442e-01  -8.7855093843562349e-01  -8.7737043912634594e-01  -8.7604012071235127e-01  -8.7488436938125191e-01  -8.7374987496606116e-01  -8.7263062489382104e-01  -8.7164664555072635e-01  -8.7060666227951078e-01  -8.6974785671445964e-01  -8.6884567550468916e-01  -8.6802074185483347e-01  -8.6730102859963942e-01  -8.6655813092315614e-01  -8.6591904348899185e-01  -8.6527128799890607e-01  -8.6467724331685369e-01  -8.6416133092990621e-01  -8.6364348812241154e-01  -8.6325901591490550e-01  -8.6285872934003238e-01  -8.6259135003367471e-01  -8.6231665555766945e-01  -8.6202887185212795e-01  -8.6185889839728236e-01  -8.6152570827265862e-01  -8.6148153522177584e-01  -8.6119671789689767e-01  -8.6127669219611813e-01  -8.6114394600040134e-01  -8.6119225354072659e-01  -8.6136563967590840e-01  -8.6139064967988810e-01  -8.6169575998103021e-01  -8.6186408877886789e-01  -8.6220232497952964e-01  -8.6260281859720855e-01  -8.6293410909631008e-01  -8.6338243198783626e-01  -8.6386982289457137e-01  -8.6440517179889409e-01  -8.6491355343902776e-01  -8.6565218193086835e-01  -8.6618383386957343e-01  -8.6696657078139316e-01  -8.6771921712604738e-01  -8.6854255501418709e-01  -8.6943838190084499e-01  -8.7035873301541822e-01  -8.7136578079808713e-01  -8.7232341857620166e-01  -8.7340678305860586e-01  -8.7445069508855688e-01  -8.7553779975635748e-01  -8.7683526040112847e-01  -8.7790828851123193e-01  -8.7928538019638569e-01  -8.8054826381570839e-01  -8.8191233701213434e-01  -8.8330049904988184e-01  -8.8462312097078588e-01  -8.8615724292759912e-01  -8.8759814551113103e-01  -8.8914179610059652e-01  -8.9072593869243688e-01  -8.9221860981664836e-01  -8.9394701525934395e-01  -8.9552339940794035e-01  -8.9735653309542640e-01  -8.9900037141889000e-01  -9.0084282203744659e-01  -9.0264660377402195e-01  -9.0438567827371219e-01  -9.0633269001586381e-01  -9.0812557375061631e-01  -9.1012277140573627e-01  -9.1205973231345394e-01  -9.1397322250655244e-01  -9.1604505133242564e-01  -9.1795668523501806e-01  -9.2015292689051709e-01  -9.2215234794857270e-01  -9.2431506590704937e-01  -9.2646753175119534e-01  -9.2861442497865221e-01  -9.3090669667790182e-01  -9.3303920639409132e-01  -9.3543174234525184e-01  -9.3753878462153672e-01  -9.3979277517169635e-01  -9.4203445707746292e-01  -9.4425517103557022e-01  -9.4669474336369064e-01  -9.4890857268765738e-01  -9.5146695610873133e-01  -9.5370178343481571e-01  -9.5607846133841834e-01  -9.5849294127385853e-01  -9.6067788465416304e-01  -9.6312595906819698e-01  -9.6533831340566201e-01  -9.6787304290030052e-01  -9.7034046003573371e-01  -9.7271682064998055e-01  -9.7539774856286310e-01  -9.7768642181990295e-01  -9.8026586371061430e-01  -9.8261843994341314e-01  -9.8510383577567939e-01  -9.8757886836873898e-01  -9.8994270514974525e-01  -9.9253737081494497e-01  -9.9485207179770052e-01  -9.9743256812839420e-01  -9.9982314413186590e-01  -1.0021991999587165e+00  -1.0047523596637413e+00  -1.0070074271076179e+00  -1.0095393044699410e+00  -1.0118740314854637e+00  -1.0144092274468783e+00  -1.0168169371323545e+00  -1.0191159813233337e+00  -1.0216265079356326e+00  -1.0237630539812217e+00  -1.0262813750984814e+00  -1.0284504534238454e+00  -1.0308117350402175e+00  -1.0332260094680372e+00  -1.0354538880075652e+00  -1.0379117760656817e+00  -1.0401057958051938e+00  -1.0424442392834909e+00  -1.0446438342660764e+00  -1.0468373020058874e+00  -1.0491498001122472e+00  -1.0511743541981509e+00  -1.0534922997388103e+00  -1.0554765177868302e+00  -1.0576716799561863e+00  -1.0597626420638748e+00  -1.0617935952994977e+00  -1.0639956730304989e+00  -1.0658186315708709e+00  -1.0679721415457193e+00  -1.0698763508367326e+00  -1.0718305084938919e+00  -1.0738429968974152e+00  -1.0756637389117842e+00  -1.0776986008606433e+00  -1.0794605823730858e+00  -1.0813860904699220e+00  -1.0832370888841238e+00  -1.0850188412092214e+00  -1.0868398268610799e+00  -1.0885229274054178e+00  -1.0903610615524730e+00  -1.0918705523934567e+00  -1.0935525420722814e+00  -1.0951546611258098e+00  -1.0966368015448280e+00  -1.0982250559226805e+00  -1.0994958778209372e+00  -1.1010311968913957e+00  -1.1024066642280528e+00  -1.1037974825917358e+00  -1.1052749555946544e+00  -1.1066254847865515e+00  -1.1080801026224625e+00  -1.1093517638217345e+00  -1.1105876392925333e+00  -1.1117863577320941e+00  -1.1128435685600062e+00  -1.1138865284214814e+00  -1.1148685107917453e+00  -1.1159016823419576e+00  -1.1167920772703863e+00  -1.1178461245343803e+00  -1.1188420470573484e+00  -1.1197271761099921e+00  -1.1206857419937006e+00  -1.1214067067557907e+00  -1.1222811405902595e+00  -1.1229965181914676e+00  -1.1237083904536707e+00  -1.1242897956784184e+00  -1.1249021807231163e+00  -1.1254745290774157e+00  -1.1259954113484993e+00  -1.1265125488349024e+00  -1.1268168662616753e+00  -1.1272658504132369e+00  -1.1275853157045443e+00  -1.1278503602239476e+00  -1.1281660636833104e+00  -1.1283857552921988e+00  -1.1285912118806616e+00  -1.1287770129722028e+00  -1.1288080049537925e+00  -1.1290437240622775e+00  -1.1290657374310513e+00  -1.1291165756914285e+00  -1.1290627934294568e+00  -1.1289701106422176e+00  -1.1287709488202864e+00  -1.1286466674657096e+00  -1.1283405815753174e+00  -1.1281465104256179e+00  -1.1278115020511028e+00  -1.1273966342796831e+00  -1.1270845776725609e+00  -1.1266335543579644e+00  -1.1260841927327410e+00  -1.1256932403101789e+00  -1.1251138905496523e+00  -1.1245615165676315e+00  -1.1238924888043145e+00  -1.1232841328480967e+00  -1.1225988786781449e+00  -1.1218038633864726e+00  -1.1210592540709394e+00  -1.1200694813575964e+00  -1.1193864077091620e+00  -1.1184122583435754e+00  -1.1176188358347474e+00  -1.1166851859078115e+00  -1.1157584323824874e+00  -1.1147585419901556e+00  -1.1136620331868332e+00  -1.1125257594143374e+00  -1.1113515401947678e+00  -1.1101392980005698e+00  -1.1089806682205576e+00  -1.1076624685801320e+00  -1.1064214906205343e+00  -1.1050090222241917e+00  -1.1036359105209641e+00  -1.1022685471187421e+00  -1.1008439422703249e+00  -1.0993936354227618e+00  -1.0978695044473472e+00  -1.0963955097322897e+00  -1.0947198627995351e+00  -1.0931871664437041e+00  -1.0914824103108636e+00  -1.0897953001744545e+00  -1.0882334521318466e+00  -1.0862739697361039e+00  -1.0846554445926304e+00  -1.0827370051117078e+00  -1.0810022827366725e+00  -1.0791399098820955e+00  -1.0773223575499284e+00  -1.0755352961290707e+00  -1.0734753947982689e+00  -1.0716147961627709e+00  -1.0695140166864865e+00  -1.0675664784393144e+00  -1.0655462846524131e+00  -1.0634149418122179e+00  -1.0614893861931454e+00  -1.0593047650844034e+00  -1.0572967450372381e+00  -1.0550625161802649e+00  -1.0528793384814441e+00  -1.0507895360770525e+00  -1.0484746737097548e+00  -1.0464147356038009e+00  -1.0441529343466123e+00  -1.0419646101738875e+00  -1.0396631465694959e+00  -1.0372907518562005e+00  -1.0350889559168130e+00  -1.0326229395816013e+00  -1.0304295509285546e+00  -1.0279909036981933e+00  -1.0256441447963627e+00  -1.0233295818530133e+00  -1.0208002087888808e+00  -1.0186020936671509e+00  -1.0160270469604040e+00  -1.0137253003131181e+00  -1.0112409362367760e+00  -1.0087941883731808e+00  -1.0064642679575742e+00  -1.0039210269482026e+00  -1.0016500240930171e+00  -9.9905293899236813e-01  -9.9670878103196270e-01  -9.9423839439205830e-01  -9.9167326241901610e-01  -9.8935467136007116e-01  -9.8677824097564648e-01  -9.8448693229865347e-01  -9.8195420221116980e-01  -9.7951950703109636e-01  -9.7716468100707443e-01  -9.7454636496161340e-01  -9.7227810128018743e-01  -9.6963003270827341e-01  -9.6733483553595256e-01  -9.6484909738654179e-01  -9.6242430441612314e-01  -9.6013960352244021e-01  -9.5761185988433473e-01  -9.5539