<?xml version="1.0"?>
<VTKFile type="UnstructuredGrid"  version="0.1"  >
<UnstructuredGrid>
<Piece  NumberOfPoints="4286" NumberOfCells="6788">
<Points>
<DataArray  type="Float64"  NumberOfComponents="3"  format="ascii">0 0.01 0  10 0.01 0  0 1.014426169383459 0  10 1.014426169383459 0  0.007129524987038337 0.009997491741717768 0  0.01258064459049757 0.00999219056738478 0  0.01872173241756402 0.009982708334120727 0  0.02429919625640796 0.009970876572043954 0  0.03017238705920286 0.009955108531615313 0  0.03612352734296466 0.0099356743715591 0  0.04164979236492252 0.009914517792428084 0  0.04780928449023854 0.009887415768096998 0  0.05327287671237849 0.009860276931383746 0  0.0593436395885565 0.009826715421083503 0  0.06505608699933001 0.009791870631895848 0  0.07077243060783153 0.009753845329312128 0  0.07684085351634186 0.009710036052663748 0  0.08230528612367993 0.009667566921662384 0  0.08846525752759338 0.009616276826848907 0  0.09398926586603956 0.0095672187064786 0  0.09994377871281757 0.009511110804477986 0  0.10581288515308 0.009452550633355501 0  0.1113930001121819 0.009393893683773193 0  0.1175326299024069 0.009326020378011352 0  0.122983161250664 0.009262856809916281 0  0.1290978349347763 0.009188765415777931 0  0.1347300222736412 0.00911751981665075 0  0.1405327472005438 0.009041131768776852 0  0.1465421455697866 0.008958856277281909 0  0.1520341809431761 0.008880870879718691 0  0.1581991754706344 0.00879018143976357 0  0.1636834803794234 0.008706732874359017 0  0.1697073563005918 0.008612096527554045 0  0.1754901396361989 0.008518345936558386 0  0.1811391035120075 0.008424050210098115 0  0.1872444279222087 0.00831915423323064 0  0.1926961446341008 0.008222899998379215 0  0.198841090009393 0.008111516418624823 0  0.2044064770158165 0.008008028244452866 0  0.2102948627703611 0.007895869216798803 0  0.2162299794791283 0.007780085801116003 0  0.2217647046821167 0.007669675498109103 0  0.2279204403470532 0.007544154739747676 0  0.2333791472114919 0.007430485124751003 0  0.2394590817234977 0.0073013084386626 0  0.245152498789355 0.007177928079207972 0  0.2508861115607116 0.007051356111670669 0  0.2569419868439766 0.006915186417023598 0  0.2624099649457279 0.006790084113692359 0  0.2685711825796066 0.006646722567663751 0  0.274083748205357 0.006516341894728842 0  0.2800541704182985 0.00637292855786236 0  0.2859022845836161 0.006230279166502627 0  0.291495955429921 0.006091868246150131 0  0.2976275706217687 0.005937986548763313 0  0.3030757324287757 0.005799406374294222 0  0.3091980118239236 0.005641654227187252 0  0.3148109405089491 0.005495191514879527 0  0.3206341933715942 0.005341435282378838 0  0.3266248575896781 0.005181393525330103 0  0.3321252080346692 0.005032833254881577 0  0.3382880718234609 0.004864596209960478 0  0.3437628463580178 0.004713611578807419 0  0.3498021006600692 0.004545443593512952 0  0.3555594631656461 0.004383601001460968 0  0.3612291099056053 0.004222822711549606 0  0.3673210805066339 0.004048576418709386 0  0.3727746135437823 0.003891330909934085 0  0.3789246700786391 0.003712634483246944 0  0.3844721023230384 0.00355025746928806 0  0.3903845048135511 0.003376011435332509 0  0.3962935688476314 0.003200699755406988 0  0.4018430601204535 0.00303505085978487 0  0.4079921977692303 0.002850427660455144 0  0.4134449905916002 0.002685819499171436 0  0.4195385366679084 0.002500937932218923 0  0.425204482428441 0.002328206591247292 0  0.4309651825948974 0.00215183074136113 0  0.4370014133195289 0.001966263547608745 0  0.4424769325836848 0.00179732019881714 0  0.4486395183564056 0.001606544730410899 0  0.4541373275735043 0.001435838569361521 0  0.4601308451156257 0.001249254088784412 0  0.4659488863550298 0.001067707976620331 0  0.471564807260988 0.0008921302908496037 0  0.4776843759254726 0.0007004920228137959 0  0.4831317484445766 0.0005296836585198918 0  0.4892643513384632 0.0003372062279158936 0  0.4948528283485032 0.000161696161435303 0  0.5007056813361916 -2.216943068070812e-05 0  0.5066699093509902 -0.000209526046556915 0  0.5121845298566023 -0.0003826949545447442 0  0.5183439831944545 -0.0005759742926309219 0  0.5238088617282698 -0.0007472800272428554 0  0.5298681543527348 -0.0009369594486414562 0  0.5355929349139432 -0.001115856450691032 0  0.5412927239341832 -0.001293613669039852 0  0.5473668732672543 -0.001482588207084091 0  0.5528259073001393 -0.001651967505962102 0  0.5589819336317072 -0.001842386787779294 0  0.5645100189486582 -0.002012797049529044 0  0.5704524332663232 -0.002195301346534757 0  0.5763298911552834 -0.002375058665203144 0  0.5819006708717119 -0.002544689651648297 0  0.5880413281562127 -0.002730768313747055 0  0.5934904284812221 -0.002895042191696308 0  0.5995995320960693 -0.003078202338538874 0  0.605236779888003 -0.003246210954182579 0  0.6110299855290301 -0.003417806240976177 0  0.6170432999212266 -0.00359472323302265 0  0.6225307972792151 -0.00375505261922207 0  0.6286944373476531 -0.003933803567825084 0  0.6341794289295242 -0.004091634709336539 0  0.6401977648984302 -0.004263413669385436 0  0.6459846030577213 -0.004427148756161272 0  0.6516277670629291 -0.004585409549508515 0  0.6577342305863492 -0.004755038487876419 0  0.6631843111407589 -0.004904958327357115 0  0.6693271588517591 -0.005072208653571043 0  0.6748942591145469 -0.005222152905474348 0  0.6807781354428797 -0.005378892074409919 0  0.6867158102497221 -0.005535201343768038 0  0.6922478556369909 -0.005679100421160843 0  0.6984036264198542 -0.005837205328254034 0  0.7038624132928571 -0.005975584427524931 0  0.7099402809449575 -0.006127588021236129 0  0.7156361945945205 -0.006268012368771779 0  0.7213667017809595 -0.006407263887957157 0  0.7274241898103784 -0.006552202568912044 0  0.7328913375361901 -0.006680980644346233 0  0.7390522654079078 -0.006823736587757829 0  0.7445663161830813 -0.006949337256267011 0  0.7505345306161221 -0.007082931996795786 0  0.7563856967966242 -0.007211490056377221 0  0.7619775509571868 -0.007332073958440476 0  0.7681106054434813 -0.007461725199742056 0  0.7735594228940573 -0.007574589702563127 0  0.7796809699364847 -0.007698739982391196 0  0.7852974086111042 -0.007810142587226769 0  0.7911178568436495 -0.007923025648348906 0  0.797112403703894 -0.008036515862006795 0  0.8026119630288198 -0.008138129173272899 0  0.8087760180262171 -0.008249131188213875 0  0.814253500572072 -0.008345174877796967 0  0.8202905515677629 -0.008448166667805387 0  0.8260544286221699 -0.008543663134562481 0  0.831720415905675 -0.008634807324656511 0  0.8378167080097026 -0.008729817306667463 0  0.8432709709919499 -0.008812108559864256 0  0.8494209576248264 -0.008901791974276371 0  0.8549745826348545 -0.008979924427376591 0  0.8608814329347291 -0.009060026011188804 0  0.8667998142885592 -0.009137155111096256 0  0.8723460990452367 -0.009206568509458774 0  0.8784989383774584 -0.009280301817794542 0  0.8839552890388401 -0.009342788637451834 0  0.8900456692707091 -0.009409293585850673 0  0.8957233874467343 -0.009468190513990782 0  0.9014754209053449 -0.009524786393944277 0  0.9075213579987256 -0.009580921173179099 0  0.9129954731058688 -0.009628765913494807 0  0.9191593188847452 -0.009679229788646495 0  0.9246655330424429 -0.009721240864333262 0  0.9306503084472221 -0.009763603884533442 0  0.9364847200361547 -0.009801580348484516 0  0.9420914259676206 -0.009834972127394636 0  0.948219177636862 -0.009867976960504428 0  0.9536688877131657 -0.009894257783109666 0  0.9597979104438458 -0.009920349306153329 0  0.9654020314719589 -0.009940987600901847 0  0.9712398170272581 -0.009959209624459757 0  0.9772219132298864 -0.009974407121723252 0  0.9827297975109929 -0.009985285083248089 0  0.9888934840407251 -0.009993913310034224 0  0.9943667421923366 -0.009998434045983932 0  1.000414962337846 -0.009999991502249178 0  1.00616395254491 -0.009998125110441144 0  1.011844857354635 -0.009993077234903055 0  1.017933801412069 -0.009984132829796667 0  1.023390946643176 -0.00997301205183276 0  1.029544679732296 -0.009956955598792184 0  1.035089558108845 -0.009939300412459717 0  1.041010936359372 -0.009917116481575694 0  1.04691554237944 -0.00989157814857561 0  1.052471258615448 -0.009864440751261633 0  1.05862104751389 -0.009830897850136421 0  1.064075481579663 -0.009798076706746352 0  1.070173358231585 -0.009757978136698224 0  1.075837941143087 -0.00971752009646258 0  1.081604377355612 -0.009673173917302162 0  1.087640686528322 -0.009623351755525641 0  1.093119387704205 -0.009575135453199036 0  1.099284093826516 -0.009517491101966447 0  1.104783734376909 -0.009463052176492596 0  1.110779897618174 -0.009400480030121557 0  1.116599992234411 -0.00933655469875222 0  1.122217899723542 -0.009271889359757672 0  1.128339818747432 -0.009198135031144493 0  1.133789446190431 -0.00912961705214143 0  1.139923317158062 -0.009049295973540348 0  1.145515844317945 -0.008973134373133167 0  1.151367773813766 -0.008890475161473248 0  1.157336906671575 -0.008803064948780913 0  1.16285160438384 -0.008719557366803981 0  1.16901331600552 -0.008623157866544266 0  1.174481522907442 -0.00853490108265173 0  1.180539122189597 -0.008434191931863186 0  1.186271617394136 -0.008336073959344166 0  1.191966996821913 -0.008235914041393521 0  1.198046448076202 -0.008126091334838595 0  1.203505695906331 -0.008024945109277802 0  1.209661806077474 -0.007908057515838151 0  1.21519584913737 -0.007800455577732041 0  1.221132109188887 -0.00768241304184519 0  1.227019087412133 -0.007562711583992629 0  1.232585135446325 -0.007447155722966398 0  1.238729389023077 -0.007316953404904543 0  1.244180486899644 -0.007199156086382225 0  1.250286093435722 -0.007064709646262071 0  1.255932842016573 -0.006938052500145445 0  1.261716857103797 -0.006806053534187844 0  1.26773845151126 -0.006666245775332091 0  1.273222687278595 -0.006536836953056475 0  1.279386853652711 -0.00638906998029936 0  1.284876650734994 -0.006255450389977176 0  1.290887326898431 -0.00610702037198264 0  1.296685536664392 -0.00596177282270944 0  1.30231949087952 -0.005818744638503708 0  1.308431215520824
[...]
<PointData  Scalars="Pressure"> 
<DataArray  type="Float64"  Name="Pressure"  format="ascii">-1.1322063178174502e+00  -1.1322063178174502e+00  -9.2620040130868020e-01  -9.2620040130868020e-01  -1.1320674575514160e+00  -1.1320175946586097e+00  -1.1320256107994391e+00  -1.1317296952188831e+00  -1.1316034872853931e+00  -1.1312980141561984e+00  -1.1310847230681651e+00  -1.1307025460869100e+00  -1.1303420615822188e+00  -1.1298802480663996e+00  -1.1293971295333340e+00  -1.1288904985618065e+00  -1.1283584608413770e+00  -1.1276406629703597e+00  -1.1271874078669124e+00  -1.1263571195885655e+00  -1.1258556944440212e+00  -1.1249906926945099e+00  -1.1244235955191120e+00  -1.1235454815749735e+00  -1.1226254998768717e+00  -1.1217686143583960e+00  -1.1207552765640789e+00  -1.1196860108822566e+00  -1.1186206394364164e+00  -1.1176736200814359e+00  -1.1165220982101445e+00  -1.1153614304301998e+00  -1.1142626613624089e+00  -1.1130392027161768e+00  -1.1118794369832925e+00  -1.1105859056040892e+00  -1.1094006164872618e+00  -1.1079777154068178e+00  -1.1066396980920858e+00  -1.1051744471817480e+00  -1.1036972321442877e+00  -1.1022808821342394e+00  -1.1006694646086306e+00  -1.0992290909410232e+00  -1.0976023293271810e+00  -1.0960368251217985e+00  -1.0944028691523067e+00  -1.0926421429093962e+00  -1.0909450373556540e+00  -1.0892173712134936e+00  -1.0873633918026044e+00  -1.0856258155549308e+00  -1.0836625991969884e+00  -1.0819995606205894e+00  -1.0799009819148651e+00  -1.0780166208129067e+00  -1.0758856854874528e+00  -1.0738962556814255e+00  -1.0718090426216711e+00  -1.0696572583113932e+00  -1.0676637237100259e+00  -1.0654626905288194e+00  -1.0633604093564570e+00  -1.0612708888657643e+00  -1.0589616000262052e+00  -1.0569594248737131e+00  -1.0545623282667866e+00  -1.0523793794283698e+00  -1.0502702072514898e+00  -1.0481976064390250e+00  -1.0459273060518248e+00  -1.0437318570254490e+00  -1.0414923825424889e+00  -1.0390444283597446e+00  -1.0368902821155077e+00  -1.0344080899365247e+00  -1.0319434043389726e+00  -1.0296583586430332e+00  -1.0270908263149185e+00  -1.0248440494344564e+00  -1.0222614269036434e+00  -1.0199456267090214e+00  -1.0174199041257108e+00  -1.0149421924631037e+00  -1.0125379485724624e+00  -1.0099687818065444e+00  -1.0076520800795041e+00  -1.0050277440951538e+00  -1.0026367296708945e+00  -1.0001242879532994e+00  -9.9757838639736696e-01  -9.9520980135899384e-01  -9.9256469186333407e-01  -9.9021118538553921e-01  -9.8763906203887930e-01  -9.8517378664589383e-01  -9.8272603656475366e-01  -9.8016269060765127e-01  -9.7782069112155567e-01  -9.7520033503539227e-01  -9.7281769816469221e-01  -9.7026300680420519e-01  -9.6781216901710032e-01  -9.6543894608406178e-01  -9.6278685769939421e-01  -9.6054598824337178e-01  -9.5787981024243163e-01  -9.5556279793244292e-01  -9.5313716175024277e-01  -9.5065916072958212e-01  -9.4841792086468912e-01  -9.4591132008434542e-01  -9.4368436016512958e-01  -9.4118147388175122e-01  -9.3887138928887903e-01  -9.3655634916649311e-01  -9.3414122434320102e-01  -9.3201024656738740e-01  -9.2959896923004159e-01  -9.2748484667294862e-01  -9.2519409524433993e-01  -9.2291336989133688e-01  -9.2081320263732358e-01  -9.1848372602984563e-01  -9.1648683000583731e-01  -9.1430623076443907e-01  -9.1236680500517631e-01  -9.1040624655412539e-01  -9.0832628370207324e-01  -9.0658059933290047e-01  -9.0447473054967231e-01  -9.0267183822601738e-01  -9.0070947286750558e-01  -8.9884404216115521e-01  -8.9710961894704266e-01  -8.9522772670340633e-01  -8.9362100393347943e-01  -8.9184383103777498e-01  -8.9030589779853286e-01  -8.8862809984215096e-01  -8.8702565795199617e-01  -8.8556962787742333e-01  -8.8400010514749605e-01  -8.8265185911935162e-01  -8.8115681967990744e-01  -8.7980634394699608e-01  -8.7843002397057846e-01  -8.7712763039987152e-01  -8.7586251032098206e-01  -8.7451969479442149e-01  -8.7344313283207942e-01  -8.7215928343888782e-01  -8.7100045870540899e-01  -8.6991342263909233e-01  -8.6875975133549121e-01  -8.6789977803348128e-01  -8.6680692791071934e-01  -8.6594304612251838e-01  -8.6506655510487707e-01  -8.6418835513746195e-01  -8.6359913583027481e-01  -8.6275946225067579e-01  -8.6215568366779050e-01  -8.6147784736137878e-01  -8.6089035055099250e-01  -8.6040076022962630e-01  -8.5999654585757301e-01  -8.5959078211076045e-01  -8.5920107797839795e-01  -8.5894003217809889e-01  -8.5870359621138115e-01  -8.5852577575563149e-01  -8.5843376986003661e-01  -8.5840766244871469e-01  -8.5842052861931351e-01  -8.5846523928598140e-01  -8.5857113890423886e-01  -8.5866038843605352e-01  -8.5891744353246369e-01  -8.5903047267274890e-01  -8.5925087775332232e-01  -8.5946883200396118e-01  -8.5973714690903835e-01  -8.6006228900600135e-01  -8.6041751915406794e-01  -8.6092214693629987e-01  -8.6139083640431025e-01  -8.6196180740976358e-01  -8.6257341875216764e-01  -8.6318183986088459e-01  -8.6401832732835249e-01  -8.6464831945748355e-01  -8.6547608075500637e-01  -8.6626635637435734e-01  -8.6714081125232945e-01  -8.6803189418196269e-01  -8.6892865011251830e-01  -8.6998981815030685e-01  -8.7097404680417057e-01  -8.7198961056699720e-01  -8.7307753683930800e-01  -8.7418071116899898e-01  -8.7542710611178765e-01  -8.7665292049510424e-01  -8.7802970548964487e-01  -8.7933787140287867e-01  -8.8075959837559703e-01  -8.8217751220343321e-01  -8.8365110978309336e-01  -8.8529369077490783e-01  -8.8690081317093772e-01  -8.8858907788273178e-01  -8.9028803679819912e-01  -8.9189302139808835e-01  -8.9376010530195271e-01  -8.9536824215570354e-01  -8.9724467616135484e-01  -8.9894312658227471e-01  -9.0089381104260147e-01  -9.0278962022122822e-01  -9.0474396168962901e-01  -9.0681065052999410e-01  -9.0872564127744726e-01  -9.1082943985827425e-01  -9.1282497304658816e-01  -9.1491073090628039e-01  -9.1711073197176651e-01  -9.1909348395326895e-01  -9.2139230174397191e-01  -9.2338937050054515e-01  -9.2566128366931810e-01  -9.2781125639339967e-01  -9.3000453438578423e-01  -9.3233532660896434e-01  -9.3446691128348502e-01  -9.3683730200887216e-01  -9.3899643891076146e-01  -9.4138938701310393e-01  -9.4366698149907335e-01  -9.4595608463481018e-01  -9.4843915341610718e-01  -9.5063123213203560e-01  -9.5320072102140341e-01  -9.5549833361728376e-01  -9.5798261618784819e-01  -9.6042217035737221e-01  -9.6276760096195479e-01  -9.6540404266802415e-01  -9.6781217776315864e-01  -9.7041988780955457e-01  -9.7283436489021291e-01  -9.7533349548545600e-01  -9.7792743191187903e-01  -9.8024117327460458e-01  -9.8288207663821081e-01  -9.8522884921178377e-01  -9.8780939191667883e-01  -9.9028264963133128e-01  -9.9267986884286430e-01  -9.9526732724999822e-01  -9.9759280424129537e-01  -1.0002129165654636e+00  -1.0026012019833812e+00  -1.0051360987113247e+00  -1.0076773111916835e+00  -1.0100478128231398e+00  -1.0127184084413396e+00  -1.0150840731194481e+00  -1.0176364906717126e+00  -1.0200842845608731e+00  -1.0224838494077717e+00  -1.0250074797632200e+00  -1.0273003811590633e+00  -1.0298520270585447e+00  -1.0321220510282483e+00  -1.0345904333790259e+00  -1.0369427873487269e+00  -1.0392369427112442e+00  -1.0417743108205688e+00  -1.0439015598615995e+00  -1.0464039479008753e+00  -1.0485840019611168e+00  -1.0508096755321019e+00  -1.0530664435401524e+00  -1.0551568077066436e+00  -1.0574624495006764e+00  -1.0595287796294861e+00  -1.0618253926317982e+00  -1.0639183009877409e+00  -1.0660252751967525e+00  -1.0681844715340920e+00  -1.0701182974170254e+00  -1.0722302494933735e+00  -1.0741364545055390e+00  -1.0761699061137786e+00  -1.0780321303979286e+00  -1.0798658213891630e+00  -1.0818050874303318e+00  -1.0835124582645037e+00  -1.0853617553516013e+00  -1.0870793758169470e+00  -1.0889051410424195e+00  -1.0906485586646133e+00  -1.0923675856050561e+00  -1.0942081957986558e+00  -1.0957169485780260e+00  -1.0975091078412693e+00  -1.0991463137074156e+00  -1.1007367176325771e+00  -1.1024483203255437e+00  -1.1038162495004191e+00  -1.1054598365389234e+00  -1.1067935180406512e+00  -1.1081416616507860e+00  -1.1095127168523562e+00  -1.1107925432304808e+00  -1.1121612560789931e+00  -1.1133538864938362e+00  -1.1146220659589730e+00  -1.1157927377809771e+00  -1.1169865449924639e+00  -1.1181281814114226e+00  -1.1192638190290483e+00  -1.1202325729392555e+00  -1.1212251918956428e+00  -1.1221101474803836e+00  -1.1229462395958720e+00  -1.1237136730714468e+00  -1.1245038816691508e+00  -1.1251525781380038e+00  -1.1258338957083804e+00  -1.1264163798057913e+00  -1.1269958123768891e+00  -1.1275844112732254e+00  -1.1281179708389413e+00  -1.1286832004868432e+00  -1.1291565161091215e+00  -1.1296422385714566e+00  -1.1299384660908189e+00  -1.1304007475080780e+00  -1.1307865954264451e+00  -1.1310248161769580e+00  -1.1314974945824874e+00  -1.1316206648209834e+00  -1.1319564170178107e+00  -1.1320893188389034e+00  -1.1322289410464608e+00  -1.1322922701197216e+00  -1.1322626778131801e+00  -1.1321830349793254e+00  -1.1320464775853980e+00  -1.1319107778673512e+00  -1.1315873694644247e+00  -1.1314229185253075e+00  -1.1310252414958086e+00  -1.1306470170974758e+00  -1.1302351755385072e+00  -1.1297073153606116e+00  -1.1293706120271656e+00  -1.1288427444752926e+00  -1.1282912549904547e+00  -1.1278269057651449e+00  -1.1272168906236055e+00  -1.1266138906871070e+00  -1.1259465530361625e+00  -1.1253295811287651e+00  -1.1245997577554585e+00  -1.1238754758160034e+00  -1.1230472524206350e+00  -1.1221761529391749e+00  -1.1212753836464211e+00  -1.1201714228249580e+00  -1.1192653829634560e+00  -1.1181233374307544e+00  -1.1169910743253606e+00  -1.1159370327734952e+00  -1.1146802090940802e+00  -1.1135147784767399e+00  -1.1121878398497247e+00  -1.1109885420230643e+00  -1.1096574643648833e+00  -1.1083485652508422e+00  -1.1070549672474361e+00  -1.1055372399177867e+00  -1.1042552629960070e+00  -1.1026515943145347e+00  -1.1011919320965773e+00  -1.0996212439965294e+00  -1.0980171702118733e+00  -1.0964726174511275e+00  -1.0947668142773572e+00  -1.0931820985495624e+00  -1.0913465343868416e+00  -1.0896151136473875e+00  -1.0878965386296158e+00  -1.0859901000044778e+00  -1.0842611900913923e+00  -1.0822647924726678e+00  -1.0804092038909627e+00  -1.0784732497846548e+00  -1.0765054061159673e+00  -1.0746116141329785e+00  -1.0725391225044201e+00  -1.0706206571562196e+00  -1.0684580725307566e+00  -1.0664839870203653e+00  -1.0643510638167228e+00  -1.0621571336602775e+00  -1.0601483229043431e+00  -1.0578057981761908e+00  -1.0556935200106528e+00  -1.0533707311041911e+00  -1.0511045025072405e+00  -1.0488907400638368e+00  -1.0464382528023264e+00  -1.0442092134896239e+00  -1.0418265563823332e+00  -1.0395936714407170e+00  -1.0372048574799242e+00  -1.0348489188448882e+00  -1.0326170257841492e+00  -1.0301412617435866e+00  -1.0279091435359473e+00  -1.0254299527713846e+00  -1.0231324516494795e+00  -1.0207351609018676e+00  -1.0181862377303648e+00  -1.0158478047487711e+00  -1.0132260094935484e+00  -1.0109023083927458e+00  -1.0082864860150853e+00  -1.0058731041496940e+00  -1.0034453015074851e+00  -1.0008271097054124e+00  -9.9849530790645580e-01  -9.9577598117725208e-01  -9.9339062601910311e-01  -9.9073021359833946e-01  -9.8819105052248912e-01  -9.8571200054458863e-01  -9.8301368599062833e-01  -9.8066176752454337e-01  -9.7801950242517399e-01  -9.7561041124962489e-01  -9.7314240489530268e-01  -9.7061154212604817e-01  -9.6833184529513228e-01  -9.6574428826956293e-01  -9.6348901546513088e-01  -9.6098891605510695e-01  -9.5862357162329270e-01  -9.5631160222156464e-01  -9.5374440765150381e-01  -9.5156648472593353e-01  -9.4907501383642545e-01  -9.4678396950613175e-01  -9.4441374684328383e-01  -9.4193696539287153e-01  -9.3983516784326304e-01  -9.3721187537711081e-01  -9.3506207970697786e-01  -9.3260975586430805e-01  -9.3039805221446437e-01  -9.2813352581729403e-01  -9.2577499067257785e-01  -9.2369365338453779e-01  -9.2137564119487003e-01  -9.1934170000329096e-01  -9.1716316724112068e-01  -9.1517960084264527e-01  -9.1315078076382727e-01  -9.1099974530476879e-01  -9.0914612882013313e-01  -9.0712316419938477e-01  -9.0534934314135729e-01  -9.0335928200037019e-01  -9.0144123046512903e-01  -8.9968327846868568e-01  -8.9774165895100055e-01  -8.9614299512319651e-01  -8.9426610224574177e-01  -8.9257095678235188e-01  -8.9089328874380791e-01  -8.8910140777780799e-01  -8.8767062359797855e-01  -8.8593533658695345e-01  -8.8449903162146171e-01  -8.8294966746299308e-01  -8.8146010626006832e-01  -8.8006819601685948e-01  -8.7856065552271068e-01  -8.7730440049608638e-01  -8.7592088190335027e-01  -8.7467608154180265e-01  -8.7344974688181809e-01  -8.7218425768550434e-01  -8.7118180863512185e-01  -8.6999612478676769e-01  -8.6906227364994826e-01  -8.6803833136679143e-01  -8.6711133956105013e-01  -8.6620034790941336e-01  -8.6537262253899760e-01  -8.6454748189864494e-01  -8.6371230086290329e-01  -8.6298357528541048e-01  -8.6225607881909727e-01  -8.6157734188379076e-01  -8.6100997145407665e-01  -8.6045320315883411e-01  -8.6008472677851144e-01  -8.5957133679686426e-01  -8.5925952039403952e-01  -8.5895951500679324e-01  -8.5869294033247501e-01  -8.5860231657035035e-01  -8.5834759555407691e-01  -8.5828120567973110e-01  -8.5817855296834678e-01  -8.5816309967574667e-01  -8.5815325371726303e-01  -8.5821766466898608e-01  -8.5835592258368343e-01  -8.5837322966970753e-01  -8.5868066010190103e-01  -8.5880290165704209e-01  -8.5917683206361950e-01  -8.5944624686711701e-01  -8.5988654712564694e-01  -8.6030987552010174e-01  -8.6087274945930048e-01  -8.6152560191965033e-01  -8.6209575018624929e-01  -8.6282129687204800e-01  -8.6352198017361737e-01  -8.6423364410965553e-01  -8.6502950018088409e-01  -8.6589790509973275e-01  -8.6686963312096299e-01  -8.6782597383863702e-01  -8.6889845347725414e-01  -8.6986700017884266e-01  -8.7096287914792203e-01  -8.7200040331498951e-01  -8.7308428673247118e-01  -8.7428865093015073e-01  -8.7548682811006395e-01  -8.7678510239267715e-01  -8.7809655338941583e-01  -8.7934165620360916e-01  -8.8080378669612180e-01  -8.8209766930114086e-01  -8.8362570855111811e-01  -8.8502980266624742e-01  -8.8668096181750544e-01  -8.8824674734795195e-01  -8.8985379636273809e-01  -8.9156596418447642e-01  -8.9314974501750277e-01  -8.9497051418932627e-01  -8.9670121401022640e-01  -8.9855989907571998e-01  -9.0047683113754573e-01  -9.0225310535838732e-01  -9.0431989318597494e-01  -9.0618978972612796e-01  -9.0822486311093076e-01  -9.1026076609654372e-01  -9.1224617691204324e-01  -9.1440295647393766e-01  -9.1636209961900772e-01  -9.1858189268998958e-01  -9.2059384874305727e-01  -9.2282537116161090e-01  -9.2493244875741265e-01  -9.2708930995257754e-01  -9.2949812798275000e-01  -9.3157476805247552e-01  -9.3396864874242491e-01  -9.3606173596024989e-01  -9.3832913560007669e-01  -9.4066012799862275e-01  -9.4283236382501212e-01  -9.4528225371332919e-01  -9.4758795297290066e-01  -9.5007115723097979e-01  -9.5238436268317772e-01  -9.5479748619044857e-01  -9.5729379932582503e-01  -9.5956539198860935e-01  -9.6221367251956724e-01  -9.6459057754983590e-01  -9.6719176315780564e-01  -9.6968178604336164e-01  -9.7215898731243777e-01  -9.7479754310583500e-01  -9.7719144197112540e-01  -9.7990732052753804e-01  -9.8220978577108442e-01  -9.8484646292577760e-01  -9.8733418036745646e-01  -9.8969982772707399e-01  -9.9233366788822186e-01  -9.9468644609891621e-01  -9.9730044695217468e-01  -9.9971476472973619e-01  -1.0021249469285523e+00  -1.0046747559526490e+00  -1.0069846858172580e+00  -1.0096060445143238e+00  -1.0119248470134279e+00  -1.0144494134718400e+00  -1.0169247107360404e+00  -1.0192644266986666e+00  -1.0218625683113540e+00  -1.0241608178775463e+00  -1.0267088884637310e+00  -1.0290201700278723e+00  -1.0314606437264076e+00  -1.0337355920812275e+00  -1.0360388362281809e+00  -1.0384316304502552e+00  -1.0405594828280977e+00  -1.0430204567971624e+00  -1.0452342569790372e+00  -1.0475255462451669e+00  -1.0499035126885881e+00  -1.0520346330376031e+00  -1.0543583057111348e+00  -1.0565035583446643e+00  -1.0587148142483789e+00  -1.0609203568133720e+00  -1.0630600444101552e+00  -1.0654078009048067e+00  -1.0674004405876172e+00  -1.0697078247515039e+00  -1.0716390937480260e+00  -1.0737383806408300e+00  -1.0757503961444403e+00  -1.0776566997269210e+00  -1.0797316973300648e+00  -1.0814416816509482e+00  -1.0834443236877906e+00  -1.0852734699911379e+00  -1.0870565308573941e+00  -1.0889385982067008e+00  -1.0905889259067583e+00  -1.0924129991395291e+00  -1.0940168640850676e+00  -1.0956746935175017e+00  -1.0972971736563157e+00  -1.0988127435750716e+00  -1.1004580219277986e+00  -1.1018870405855028e+00  -1.1034000009731952e+00  -1.1048047033990687e+00  -1.1062445389373174e+00  -1.1075823932715732e+00  -1.1089294549077513e+00  -1.1104555112632173e+00  -1.1117436615969467e+00  -1.1130848626151080e+00  -1.1143460335899005e+00  -1.1155318673786017e+00  -1.1167925675503976e+00  -1.1177676821596327e+00  -1.1190634855006141e+00  -1.1199475433413781e+00  -1.1210513108623619e+00  -1.1219572376893265e+00  -1.1227602575989581e+00  -1.1236664057175207e+00  -1.1244794395705995e+00  -1.1252652745028002e+00  -1.1259325939043752e+00  -1.1266379502332011e+00  -1.1272475193143212e+00  -1.1277652870391346e+00  -1.1282582791332216e+00  -1.1287020072102945e+00  -1.1291952091598991e+00  -1.1295363300827301e+00  -1.1300482447416125e+00  -1.1304437303857227e+00  -1.1307441172973591e+00  -1.1310990372162695e+00  -1.1313747891614478e+00  -1.1316358203126726e+00  -1.1318768556417256e+00  -1.1319712652130465e+00  -1.1322429335699737e+00  -1.1321693318016002e+00  -1.1323588792997334e+00  -1.1321459323687537e+00  -1.1321494912878038e+00  -1.1319484013012180e+00  -1.1316090392459148e+00  -1.1314859401272266e+00  -1.1309803547933641e+00  -1.1308711060599748e+00  -1.1302215211644759e+00  -1.1299909777857331e+00  -1.1294746085828056e+00  -1.1289319161795346e+00  -1.1284102669444189e+00  -1.1276522670815328e+00  -1.1272644346003835e+00  -1.1265055081909572e+00  -1.1260423182281041e+00  -1.1253826984343833e+00  -1.1246122273512897e+00  -1.1239911854440896e+00  -1.1231347315340747e+00  -1.1222886603467508e+00  -1.1213355449327880e+00  -1.1203302526652101e+00  -1.1193983534911429e+00  -1.1182774361087755e+00  -1.1171615500653735e+00  -1.1159329681758243e+00  -1.1148564890905150e+00  -1.1136205050836310e+00  -1.1124330959720572e+00  -1.1112152492687675e+00  -1.1098498686507849e+00  -1.1085983028061748e+00  -1.1071753690174704e+00  -1.1058667510951099e+00  -1.1044247550088271e+00  -1.1030126757974723e+00  -1.1016988495027702e+00  -1.1001744856953168e+00  -1.0987447943536617e+00  -1.0970789665574798e+00  -1.0955968689348956e+00  -1.0939340425675101e+00  -1.0922806373115930e+00  -1.0906227915945630e+00  -1.0886816125565131e+00  -1.0871055486031989e+00  -1.0852153716034034e+00  -1.0833803978543068e+00  -1.0814610028774319e+00  -1.0794127003695222e+00  -1.0776036473419495e+00  -1.0754306838382544e+00  -1.0735059348146181e+00  -1.0713212562580066e+00  -1.0692492677894816e+00  -1.0671671843862229e+00  -1.0648803371716768e+00  -1.0627744882762105e+00  -1.0604399184817244e+00  -1.0582702475004431e+00  -1.0559407074301610e+00  -1.0536712800445438e+00  -1.0514695827187104e+00  -1.0490803277652723e+00  -1.0469614016836615e+00  -1.0445207135718004e+00  -1.0422961714007712e+00  -1.0399605182132809e+00  -1.0375772329527555e+00  -1.0354110375776511e+00  -1.0329140651973430e+00  -1.0307171236291746e+00  -1.0282629167424229e+00  -1.0259330662012554e+00  -1.0235698019884500e+00  -1.0211017070294015e+00  -1.0188310330842993e+00  -1.0163071098186074e+00  -1.0140014233999599e+00  -1.0114852986219443e+00  -1.0090136344333929e+00  -1.0066294454896463e+00  -1.0040209261258630e+00  -1.0016800607790581e+00  -9.9902426224630503e-01  -9.9657738518468642e-01  -9.9406091475937131e-01  -9.9143861035447745e-01  -9.8903233873580676e-01  -9.8634044066963156e-01  -9.8393304669925474e-01  -9.8129989304544540e-01  -9.7884253036788405e-01  -9.7634886848108260e-01  -9.7367746545679890e-01  -9.7134520612277975e-01  -9.6888435959738428e-01  -9.6649955105057617e-01  -9.6407159174750456e-01  -9.6158051276736745e-01  -9.5929423075154296e-01  -9.5675432809442695e-01  -9.5452