<?xml version="1.0"?>
<VTKFile type="UnstructuredGrid"  version="0.1"  >
<UnstructuredGrid>
<Piece  NumberOfPoints="4266" NumberOfCells="6748">
<Points>
<DataArray  type="Float64"  NumberOfComponents="3"  format="ascii">0 0.01 0  10 0.01 0  0 1.012129576756052 0  10 1.012129576756052 0  0.007129524987038337 0.009997491741717768 0  0.01258064459049757 0.00999219056738478 0  0.01872173241756402 0.009982708334120727 0  0.02429919625640796 0.009970876572043954 0  0.03017238705920286 0.009955108531615313 0  0.03612352734296466 0.0099356743715591 0  0.04164979236492252 0.009914517792428084 0  0.04780928449023854 0.009887415768096998 0  0.05327287671237849 0.009860276931383746 0  0.0593436395885565 0.009826715421083503 0  0.06505608699933001 0.009791870631895848 0  0.07077243060783153 0.009753845329312128 0  0.07684085351634186 0.009710036052663748 0  0.08230528612367993 0.009667566921662384 0  0.08846525752759338 0.009616276826848907 0  0.09398926586603956 0.0095672187064786 0  0.09994377871281757 0.009511110804477986 0  0.10581288515308 0.009452550633355501 0  0.1113930001121819 0.009393893683773193 0  0.1175326299024069 0.009326020378011352 0  0.122983161250664 0.009262856809916281 0  0.1290978349347763 0.009188765415777931 0  0.1347300222736412 0.00911751981665075 0  0.1405327472005438 0.009041131768776852 0  0.1465421455697866 0.008958856277281909 0  0.1520341809431761 0.008880870879718691 0  0.1581991754706344 0.00879018143976357 0  0.1636834803794234 0.008706732874359017 0  0.1697073563005918 0.008612096527554045 0  0.1754901396361989 0.008518345936558386 0  0.1811391035120075 0.008424050210098115 0  0.1872444279222087 0.00831915423323064 0  0.1926961446341008 0.008222899998379215 0  0.198841090009393 0.008111516418624823 0  0.2044064770158165 0.008008028244452866 0  0.2102948627703611 0.007895869216798803 0  0.2162299794791283 0.007780085801116003 0  0.2217647046821167 0.007669675498109103 0  0.2279204403470532 0.007544154739747676 0  0.2333791472114919 0.007430485124751003 0  0.2394590817234977 0.0073013084386626 0  0.245152498789355 0.007177928079207972 0  0.2508861115607116 0.007051356111670669 0  0.2569419868439766 0.006915186417023598 0  0.2624099649457279 0.006790084113692359 0  0.2685711825796066 0.006646722567663751 0  0.274083748205357 0.006516341894728842 0  0.2800541704182985 0.00637292855786236 0  0.2859022845836161 0.006230279166502627 0  0.291495955429921 0.006091868246150131 0  0.2976275706217687 0.005937986548763313 0  0.3030757324287757 0.005799406374294222 0  0.3091980118239236 0.005641654227187252 0  0.3148109405089491 0.005495191514879527 0  0.3206341933715942 0.005341435282378838 0  0.3266248575896781 0.005181393525330103 0  0.3321252080346692 0.005032833254881577 0  0.3382880718234609 0.004864596209960478 0  0.3437628463580178 0.004713611578807419 0  0.3498021006600692 0.004545443593512952 0  0.3555594631656461 0.004383601001460968 0  0.3612291099056053 0.004222822711549606 0  0.3673210805066339 0.004048576418709386 0  0.3727746135437823 0.003891330909934085 0  0.3789246700786391 0.003712634483246944 0  0.3844721023230384 0.00355025746928806 0  0.3903845048135511 0.003376011435332509 0  0.3962935688476314 0.003200699755406988 0  0.4018430601204535 0.00303505085978487 0  0.4079921977692303 0.002850427660455144 0  0.4134449905916002 0.002685819499171436 0  0.4195385366679084 0.002500937932218923 0  0.425204482428441 0.002328206591247292 0  0.4309651825948974 0.00215183074136113 0  0.4370014133195289 0.001966263547608745 0  0.4424769325836848 0.00179732019881714 0  0.4486395183564056 0.001606544730410899 0  0.4541373275735043 0.001435838569361521 0  0.4601308451156257 0.001249254088784412 0  0.4659488863550298 0.001067707976620331 0  0.471564807260988 0.0008921302908496037 0  0.4776843759254726 0.0007004920228137959 0  0.4831317484445766 0.0005296836585198918 0  0.4892643513384632 0.0003372062279158936 0  0.4948528283485032 0.000161696161435303 0  0.5007056813361916 -2.216943068070812e-05 0  0.5066699093509902 -0.000209526046556915 0  0.5121845298566023 -0.0003826949545447442 0  0.5183439831944545 -0.0005759742926309219 0  0.5238088617282698 -0.0007472800272428554 0  0.5298681543527348 -0.0009369594486414562 0  0.5355929349139432 -0.001115856450691032 0  0.5412927239341832 -0.001293613669039852 0  0.5473668732672543 -0.001482588207084091 0  0.5528259073001393 -0.001651967505962102 0  0.5589819336317072 -0.001842386787779294 0  0.5645100189486582 -0.002012797049529044 0  0.5704524332663232 -0.002195301346534757 0  0.5763298911552834 -0.002375058665203144 0  0.5819006708717119 -0.002544689651648297 0  0.5880413281562127 -0.002730768313747055 0  0.5934904284812221 -0.002895042191696308 0  0.5995995320960693 -0.003078202338538874 0  0.605236779888003 -0.003246210954182579 0  0.6110299855290301 -0.003417806240976177 0  0.6170432999212266 -0.00359472323302265 0  0.6225307972792151 -0.00375505261922207 0  0.6286944373476531 -0.003933803567825084 0  0.6341794289295242 -0.004091634709336539 0  0.6401977648984302 -0.004263413669385436 0  0.6459846030577213 -0.004427148756161272 0  0.6516277670629291 -0.004585409549508515 0  0.6577342305863492 -0.004755038487876419 0  0.6631843111407589 -0.004904958327357115 0  0.6693271588517591 -0.005072208653571043 0  0.6748942591145469 -0.005222152905474348 0  0.6807781354428797 -0.005378892074409919 0  0.6867158102497221 -0.005535201343768038 0  0.6922478556369909 -0.005679100421160843 0  0.6984036264198542 -0.005837205328254034 0  0.7038624132928571 -0.005975584427524931 0  0.7099402809449575 -0.006127588021236129 0  0.7156361945945205 -0.006268012368771779 0  0.7213667017809595 -0.006407263887957157 0  0.7274241898103784 -0.006552202568912044 0  0.7328913375361901 -0.006680980644346233 0  0.7390522654079078 -0.006823736587757829 0  0.7445663161830813 -0.006949337256267011 0  0.7505345306161221 -0.007082931996795786 0  0.7563856967966242 -0.007211490056377221 0  0.7619775509571868 -0.007332073958440476 0  0.7681106054434813 -0.007461725199742056 0  0.7735594228940573 -0.007574589702563127 0  0.7796809699364847 -0.007698739982391196 0  0.7852974086111042 -0.007810142587226769 0  0.7911178568436495 -0.007923025648348906 0  0.797112403703894 -0.008036515862006795 0  0.8026119630288198 -0.008138129173272899 0  0.8087760180262171 -0.008249131188213875 0  0.814253500572072 -0.008345174877796967 0  0.8202905515677629 -0.008448166667805387 0  0.8260544286221699 -0.008543663134562481 0  0.831720415905675 -0.008634807324656511 0  0.8378167080097026 -0.008729817306667463 0  0.8432709709919499 -0.008812108559864256 0  0.8494209576248264 -0.008901791974276371 0  0.8549745826348545 -0.008979924427376591 0  0.8608814329347291 -0.009060026011188804 0  0.8667998142885592 -0.009137155111096256 0  0.8723460990452367 -0.009206568509458774 0  0.8784989383774584 -0.009280301817794542 0  0.8839552890388401 -0.009342788637451834 0  0.8900456692707091 -0.009409293585850673 0  0.8957233874467343 -0.009468190513990782 0  0.9014754209053449 -0.009524786393944277 0  0.9075213579987256 -0.009580921173179099 0  0.9129954731058688 -0.009628765913494807 0  0.9191593188847452 -0.009679229788646495 0  0.9246655330424429 -0.009721240864333262 0  0.9306503084472221 -0.009763603884533442 0  0.9364847200361547 -0.009801580348484516 0  0.9420914259676206 -0.009834972127394636 0  0.948219177636862 -0.009867976960504428 0  0.9536688877131657 -0.009894257783109666 0  0.9597979104438458 -0.009920349306153329 0  0.9654020314719589 -0.009940987600901847 0  0.9712398170272581 -0.009959209624459757 0  0.9772219132298864 -0.009974407121723252 0  0.9827297975109929 -0.009985285083248089 0  0.9888934840407251 -0.009993913310034224 0  0.9943667421923366 -0.009998434045983932 0  1.000414962337846 -0.009999991502249178 0  1.00616395254491 -0.009998125110441144 0  1.011844857354635 -0.009993077234903055 0  1.017933801412069 -0.009984132829796667 0  1.023390946643176 -0.00997301205183276 0  1.029544679732296 -0.009956955598792184 0  1.035089558108845 -0.009939300412459717 0  1.041010936359372 -0.009917116481575694 0  1.04691554237944 -0.00989157814857561 0  1.052471258615448 -0.009864440751261633 0  1.05862104751389 -0.009830897850136421 0  1.064075481579663 -0.009798076706746352 0  1.070173358231585 -0.009757978136698224 0  1.075837941143087 -0.00971752009646258 0  1.081604377355612 -0.009673173917302162 0  1.087640686528322 -0.009623351755525641 0  1.093119387704205 -0.009575135453199036 0  1.099284093826516 -0.009517491101966447 0  1.104783734376909 -0.009463052176492596 0  1.110779897618174 -0.009400480030121557 0  1.116599992234411 -0.00933655469875222 0  1.122217899723542 -0.009271889359757672 0  1.128339818747432 -0.009198135031144493 0  1.133789446190431 -0.00912961705214143 0  1.139923317158062 -0.009049295973540348 0  1.145515844317945 -0.008973134373133167 0  1.151367773813766 -0.008890475161473248 0  1.157336906671575 -0.008803064948780913 0  1.16285160438384 -0.008719557366803981 0  1.16901331600552 -0.008623157866544266 0  1.174481522907442 -0.00853490108265173 0  1.180539122189597 -0.008434191931863186 0  1.186271617394136 -0.008336073959344166 0  1.191966996821913 -0.008235914041393521 0  1.198046448076202 -0.008126091334838595 0  1.203505695906331 -0.008024945109277802 0  1.209661806077474 -0.007908057515838151 0  1.21519584913737 -0.007800455577732041 0  1.221132109188887 -0.00768241304184519 0  1.227019087412133 -0.007562711583992629 0  1.232585135446325 -0.007447155722966398 0  1.238729389023077 -0.007316953404904543 0  1.244180486899644 -0.007199156086382225 0  1.250286093435722 -0.007064709646262071 0  1.255932842016573 -0.006938052500145445 0  1.261716857103797 -0.006806053534187844 0  1.26773845151126 -0.006666245775332091 0  1.273222687278595 -0.006536836953056475 0  1.279386853652711 -0.00638906998029936 0  1.284876650734994 -0.006255450389977176 0  1.290887326898431 -0.00610702037198264 0  1.296685536664392 -0.00596177282270944 0  1.30231949087952 -0.005818744638503708 0  1.308431215520824
[...]
<PointData  Scalars="Pressure"> 
<DataArray  type="Float64"  Name="Pressure"  format="ascii">-1.1340193617978205e+00  -1.1340193617978205e+00  -9.3265141220265135e-01  -9.3265141220265135e-01  -1.1338551243534440e+00  -1.1338342866383690e+00  -1.1338332306659529e+00  -1.1335485415826383e+00  -1.1334142394935103e+00  -1.1331041519957956e+00  -1.1328786099587196e+00  -1.1324919046724391e+00  -1.1321273800137326e+00  -1.1316600977922147e+00  -1.1311704007514474e+00  -1.1306556843461539e+00  -1.1301147548494024e+00  -1.1293884670959824e+00  -1.1289250664800921e+00  -1.1280853248952929e+00  -1.1275732791824671e+00  -1.1266969919008838e+00  -1.1261192915805791e+00  -1.1252276240076471e+00  -1.1242954871519408e+00  -1.1234238217557007e+00  -1.1223964171125540e+00  -1.1213122327537166e+00  -1.1202311194019592e+00  -1.1192697870297978e+00  -1.1181007269914127e+00  -1.1169241709865509e+00  -1.1158074471521504e+00  -1.1145662554517890e+00  -1.1133890068050087e+00  -1.1120761730953450e+00  -1.1108725798444328e+00  -1.1094294645344647e+00  -1.1080710140592689e+00  -1.1065841938234677e+00  -1.1050858293426373e+00  -1.1036490246406241e+00  -1.1020137051542107e+00  -1.1005519779985597e+00  -1.0989000634776160e+00  -1.0973109327107320e+00  -1.0956526262228887e+00  -1.0938655424940191e+00  -1.0921445973625792e+00  -1.0903900304217451e+00  -1.0885107447718689e+00  -1.0867464580893067e+00  -1.0847561080497217e+00  -1.0830677363083441e+00  -1.0809391695214903e+00  -1.0790280534656962e+00  -1.0768668682713260e+00  -1.0748492953861108e+00  -1.0727327367450559e+00  -1.0705508849381795e+00  -1.0685293816165911e+00  -1.0662969864356069e+00  -1.0641662471571836e+00  -1.0620455610137780e+00  -1.0597056344586584e+00  -1.0576737989989422e+00  -1.0552441411647295e+00  -1.0530323048269867e+00  -1.0508913231103434e+00  -1.0487897764044762e+00  -1.0464882347041493e+00  -1.0442610591576977e+00  -1.0419910068053519e+00  -1.0395092441708695e+00  -1.0373249771138309e+00  -1.0348085990139360e+00  -1.0323107953695294e+00  -1.0299938910268047e+00  -1.0273915935491389e+00  -1.0251139493262957e+00  -1.0224963291787916e+00  -1.0201489359242566e+00  -1.0175889168803098e+00  -1.0150778699937861e+00  -1.0126412791041419e+00  -1.0100377030786192e+00  -1.0076897158950657e+00  -1.0050306212009874e+00  -1.0026079541507371e+00  -1.0000620961394364e+00  -9.9748254497046707e-01  -9.9508256345800961e-01  -9.9240307403679462e-01  -9.9001928976868292e-01  -9.8741378846302541e-01  -9.8491644593716199e-01  -9.8243751185618944e-01  -9.7984048382966271e-01  -9.7746857863937819e-01  -9.7481420617313019e-01  -9.7240139655961100e-01  -9.6981412215626772e-01  -9.6733178294490429e-01  -9.6492831322490658e-01  -9.6224279557114545e-01  -9.5997295573252517e-01  -9.5727383012242206e-01  -9.5492696411223155e-01  -9.5247144176773801e-01  -9.4996178804800657e-01  -9.4769259005597051e-01  -9.4515441959079460e-01  -9.4289936936101482e-01  -9.4036593414075109e-01  -9.3802634930415540e-01  -9.3568337095327292e-01  -9.3323817630206629e-01  -9.3108080245356173e-01  -9.2863991183365202e-01  -9.2649987652796895e-01  -9.2418124632551935e-01  -9.2187275528208357e-01  -9.1974718705683522e-01  -9.1738934714511744e-01  -9.1536834236585407e-01  -9.1316071484801542e-01  -9.1119698476893241e-01  -9.0921220783440904e-01  -9.0710713657658448e-01  -9.0534053013850224e-01  -9.0320991191024491e-01  -9.0138595948302114e-01  -8.9940009574715962e-01  -8.9751279850008348e-01  -8.9575760281992467e-01  -8.9385312099372005e-01  -8.9222759524701223e-01  -8.9042924214178931e-01  -8.8887302340047936e-01  -8.8717562710108477e-01  -8.8555496547942092e-01  -8.8408268169941318e-01  -8.8249486689055789e-01  -8.8113138607391073e-01  -8.7961891525109159e-01  -8.7825263931839337e-01  -8.7686170980603306e-01  -8.7554382805584241e-01  -8.7426562940537922e-01  -8.7290825056571852e-01  -8.7181896587959540e-01  -8.7052201618482616e-01  -8.6935027255191732e-01  -8.6825160887520469e-01  -8.6708563416246609e-01  -8.6621528177090990e-01  -8.6511132332094975e-01  -8.6423739175352965e-01  -8.6335106763421987e-01  -8.6246317579316778e-01  -8.6186616025654395e-01  -8.6101845294799406e-01  -8.6040859054986663e-01  -8.5972338994468422e-01  -8.5912913533549606e-01  -8.5863474316265886e-01  -8.5822428924356198e-01  -8.5781599450797963e-01  -8.5742179643665084e-01  -8.5715804921865157e-01  -8.5691883750145426e-01  -8.5673815383214569e-01  -8.5664436527601784e-01  -8.5661733063700218e-01  -8.5662969658430055e-01  -8.5667406080310582e-01  -8.5677999716807662e-01  -8.5686991822630953e-01  -8.5712764206260528e-01  -8.5724194866670278e-01  -8.5746383560290196e-01  -8.5768454156998852e-01  -8.5795629148058217e-01  -8.5828569896176232e-01  -8.5864562448913639e-01  -8.5915537396285224e-01  -8.5962904992139721e-01  -8.6020706912044920e-01  -8.6082543694983549e-01  -8.6144216397920292e-01  -8.6228763539774911e-01  -8.6292527924831330e-01  -8.6376182455631989e-01  -8.6456159390269205e-01  -8.6544649814962138e-01  -8.6634871187263318e-01  -8.6725679981297366e-01  -8.6833055152638261e-01  -8.6932661638733744e-01  -8.7035535530338826e-01  -8.7145707290773333e-01  -8.7257468741552224e-01  -8.7383726000585238e-01  -8.7507846405520162e-01  -8.7647220690069005e-01  -8.7779680038292585e-01  -8.7923585187770603e-01  -8.8067052376224464e-01  -8.8216217237903694e-01  -8.8382442118588667e-01  -8.8544935576160422e-01  -8.8715884943269741e-01  -8.8887607409601299e-01  -8.9050155916497631e-01  -8.9238872434107708e-01  -8.9401656121640871e-01  -8.9591455800386455e-01  -8.9763254689071825e-01  -8.9960602280362345e-01  -9.0152373708096101e-01  -9.0350071622464190e-01  -9.0559143300049283e-01  -9.0752818474461383e-01  -9.0965749448955480e-01  -9.1167579664089349e-01  -9.1378733219826214e-01  -9.1601255261928094e-01  -9.1801960845683539e-01  -9.2034614434887574e-01  -9.2236818441713631e-01  -9.2466802290356742e-01  -9.2684488176216662e-01  -9.2906543321004431e-01  -9.3142526706406403e-01  -9.3358321488174068e-01  -9.3598369779504642e-01  -9.3816959662813248e-01  -9.4059227904641096e-01  -9.4289792556944474e-01  -9.4521571972137386e-01  -9.4772908144150125e-01  -9.4994913691225724e-01  -9.5255056307645070e-01  -9.5487710873587073e-01  -9.5739278801048344e-01  -9.5986333902570109e-01  -9.6223852801977905e-01  -9.6490877621879856e-01  -9.6734718987353108e-01  -9.6998849621725614e-01  -9.7243361171473219e-01  -9.7496517149826756e-01  -9.7759254725252664e-01  -9.7993646167585835e-01  -9.8261164546680368e-01  -9.8498902237315233e-01  -9.8760305550951499e-01  -9.9010831381024411e-01  -9.9253662443018764e-01  -9.9515776136410994e-01  -9.9751364434190570e-01  -1.0001684296086404e+00  -1.0025878896379981e+00  -1.0051567685033413e+00  -1.0077321191276789e+00  -1.0101345121115066e+00  -1.0128414048293761e+00  -1.0152388820765310e+00  -1.0178257414782654e+00  -1.0203068585095207e+00  -1.0227380514328608e+00  -1.0252958707532873e+00  -1.0276195467331055e+00  -1.0302058398586473e+00  -1.0325073907612758e+00  -1.0350081427681193e+00  -1.0373931913988472e+00  -1.0397176615626516e+00  -1.0422895508334422e+00  -1.0444464668095952e+00  -1.0469827722789002e+00  -1.0491934667068694e+00  -1.0514503977671767e+00  -1.0537385254986769e+00  -1.0558582702833981e+00  -1.0581955354871866e+00  -1.0602905649710275e+00  -1.0626190701675358e+00  -1.0647422820688055e+00  -1.0668785778119467e+00  -1.0690690797884761e+00  -1.0710305748873059e+00  -1.0731724312214219e+00  -1.0751057466737481e+00  -1.0771675291453491e+00  -1.0790588451390732e+00  -1.0809174993734967e+00  -1.0828863689087163e+00  -1.0846184300162793e+00  -1.0864964417599923e+00  -1.0882402098954449e+00  -1.0900911667075768e+00  -1.0918608487016119e+00  -1.0936029433564947e+00  -1.0954697650209200e+00  -1.0970022789189688e+00  -1.0988192500003644e+00  -1.1004812435891145e+00  -1.1020945989043327e+00  -1.1038307525466184e+00  -1.1052200821310663e+00  -1.1068859676788840e+00  -1.1082395026742666e+00  -1.1096072088532309e+00  -1.1109985335110533e+00  -1.1122968193787379e+00  -1.1136859132302175e+00  -1.1148961930494732e+00  -1.1161834823359196e+00  -1.1173717689176137e+00  -1.1185833560345539e+00  -1.1197430481119255e+00  -1.1208947008410195e+00  -1.1218762243662128e+00  -1.1228849191023713e+00  -1.1237818435008105e+00  -1.1246297359660884e+00  -1.1254081654593999e+00  -1.1262097358531462e+00  -1.1268684733097776e+00  -1.1275606827156031e+00  -1.1281511052942192e+00  -1.1287366536973071e+00  -1.1293337926277520e+00  -1.1298726987283374e+00  -1.1304444253173185e+00  -1.1309243168882330e+00  -1.1314129076773438e+00  -1.1317149640537996e+00  -1.1321783668081162e+00  -1.1325686721421859e+00  -1.1328102535066711e+00  -1.1332877050560970e+00  -1.1334128742781859e+00  -1.1337522887217817e+00  -1.1338871221194597e+00  -1.1340284662443707e+00  -1.1340949314283166e+00  -1.1340668737187409e+00  -1.1339883006287488e+00  -1.1338584788480521e+00  -1.1337276924498665e+00  -1.1334142953284261e+00  -1.1332498571028216e+00  -1.1328554110785640e+00  -1.1324775728121990e+00  -1.1320687087254948e+00  -1.1315456296290940e+00  -1.1312095191278135e+00  -1.1306802860810961e+00  -1.1301211963625901e+00  -1.1296464247650013e+00  -1.1290218685913402e+00  -1.1283960987510635e+00  -1.1277091553594758e+00  -1.1270796684789417e+00  -1.1263391860822420e+00  -1.1256175244429505e+00  -1.1247746001465861e+00  -1.1239010866533550e+00  -1.1229774038285101e+00  -1.1218294054289353e+00  -1.1208747262682000e+00  -1.1196802114164808e+00  -1.1184872696886867e+00  -1.1174111341286734e+00  -1.1161672895661672e+00  -1.1150314241795509e+00  -1.1137217246783402e+00  -1.1125223642375111e+00  -1.1111907150968108e+00  -1.1098522791533278e+00  -1.1085041468387522e+00  -1.1069491616740232e+00  -1.1056189402594427e+00  -1.1039819112836664e+00  -1.1025049459495171e+00  -1.1009128253264493e+00  -1.0992896012475883e+00  -1.0977237870876795e+00  -1.0959898640868753e+00  -1.0943791810856549e+00  -1.0925106331813852e+00  -1.0907558455237059e+00  -1.0890065116841836e+00  -1.0870768759174323e+00  -1.0853246165386683e+00  -1.0833129234410526e+00  -1.0814385849056647e+00  -1.0794802912813015e+00  -1.0774817284655567e+00  -1.0755465890399909e+00  -1.0734375946000916e+00  -1.0714966475518410e+00  -1.0693039675562375e+00  -1.0673078750892862e+00  -1.0651477983172919e+00  -1.0629321512815040e+00  -1.0608930061736737e+00  -1.0585205006473741e+00  -1.0563808734285260e+00  -1.0540235377481637e+00  -1.0517283220534055e+00  -1.0494865049913846e+00  -1.0470022729476798e+00  -1.0447470176984019e+00  -1.0423324186925027e+00  -1.0400722981157444e+00  -1.0376531040043466e+00  -1.0352692626569135e+00  -1.0330060865327542e+00  -1.0305000855806605e+00  -1.0282383430528008e+00  -1.0257283375649717e+00  -1.0233985930970240e+00  -1.0209775933158258e+00  -1.0183978059441432e+00  -1.0160350669001892e+00  -1.0133804135997773e+00  -1.0110289907617678e+00  -1.0083690529269105e+00  -1.0059342619198173e+00  -1.0034916083251626e+00  -1.0007896730327022e+00  -9.9849211599084831e-01  -9.9573651330270940e-01  -9.9332843731894827e-01  -9.9068263020965375e-01  -9.8811856108741858e-01  -9.8564865845450556e-01  -9.8293129219169650e-01  -9.8054881690566620e-01  -9.7787626594025667e-01  -9.7543438801170623e-01  -9.7292707796828404e-01  -9.7033832153756705e-01  -9.6798271322284535e-01  -9.6530052023455915e-01  -9.6295161643014804e-01  -9.6033118413243390e-01  -9.5783710402788846e-01  -9.5541380554625288e-01  -9.5279032049865087e-01  -9.5056876346916153e-01  -9.4802609782156011e-01  -9.4577960650892512e-01  -9.4332996363469290e-01  -9.4094877092837914e-01  -9.3864342964651437e-01  -9.3616465293228834e-01  -9.3398694620870926e-01  -9.3156758530942518e-01  -9.2940479544234811e-01  -9.2718476779614056e-01  -9.2486889770344682e-01  -9.2281547359248461e-01  -9.2048759960483373e-01  -9.1850836007998138e-01  -9.1635468378395368e-01  -9.1423827803908242e-01  -9.1224654009329442e-01  -9.1000515311320751e-01  -9.0805888719985040e-01  -9.0590852706182279e-01  -9.0404581463534661e-01  -9.0198536062006651e-01  -9.0011704179602181e-01  -8.9830225793830809e-01  -8.9630695320274700e-01  -8.9465266992047476e-01  -8.9280468734066176e-01  -8.9138929230190189e-01  -8.8958156768367158e-01  -8.8795050402546605e-01  -8.8638655638086083e-01  -8.8474905640374268e-01  -8.8335512506264613e-01  -8.8172443269443623e-01  -8.8020373698304322e-01  -8.7872694096892989e-01  -8.7710476918234270e-01  -8.7578519802480881e-01  -8.7433993490466932e-01  -8.7306056014310074e-01  -8.7178663525846034e-01  -8.7049062217747131e-01  -8.6951741309872010e-01  -8.6822504303270132e-01  -8.6740788595275453e-01  -8.6620857385029926e-01  -8.6540344700551430e-01  -8.6440805863345194e-01  -8.6352603492148294e-01  -8.6275786351258288e-01  -8.6188851570430325e-01  -8.6128994822923266e-01  -8.6045466230273338e-01  -8.5990723994356211e-01  -8.5928705957590890e-01  -8.5872384745471497e-01  -8.5836060730353969e-01  -8.5780605686233502e-01  -8.5749644492864385e-01  -8.5718352805453046e-01  -8.5696769794232952e-01  -8.5668245877944371e-01  -8.5649439088405366e-01  -8.5638024025492387e-01  -8.5623958458707539e-01  -8.5626552222642538e-01  -8.5617933274570790e-01  -8.5626491797010629e-01  -8.5640117631958224e-01  -8.5653727529161561e-01  -8.5670762305098402e-01  -8.5689320159854832e-01  -8.5726915389220604e-01  -8.5763277965425944e-01  -8.5815196421783413e-01  -8.5864752519971366e-01  -8.5928562260039754e-01  -8.5990064480741912e-01  -8.6049675877193521e-01  -8.6108184910373320e-01  -8.6165649419935897e-01  -8.6253000243672673e-01  -8.6315705854303004e-01  -8.6401302469152308e-01  -8.6496963169540508e-01  -8.6588783835511329e-01  -8.6704072450766889e-01  -8.6808993425420589e-01  -8.6929747357345144e-01  -8.7050849265299712e-01  -8.7164532482288959e-01  -8.7298068193118505e-01  -8.7418384433988483e-01  -8.7547749952207199e-01  -8.7665264454653469e-01  -8.7797002615489328e-01  -8.7932228426944492e-01  -8.8064122986326987e-01  -8.8220490131561669e-01  -8.8362342973440378e-01  -8.8525460878189832e-01  -8.8682229352420150e-01  -8.8847460072946693e-01  -8.9022194934051402e-01  -8.9188315533773421e-01  -8.9380515704080721e-01  -8.9558500161798238e-01  -8.9739388388703756e-01  -8.9934025220685321e-01  -9.0112419090397977e-01  -9.0317782937550528e-01  -9.0494400997277691e-01  -9.0707191519729069e-01  -9.0901950511135354e-01  -9.1105384412687984e-01  -9.1315214754663088e-01  -9.1511142741069085e-01  -9.1731312399391618e-01  -9.1935567783471273e-01  -9.2160877958826171e-01  -9.2379760536548106e-01  -9.2593718954251847e-01  -9.2832803251815099e-01  -9.3046940361022223e-01  -9.3290259566204448e-01  -9.3513075442351112e-01  -9.3751320262185345e-01  -9.3984284452456479e-01  -9.4205664222657104e-01  -9.4460149650464031e-01  -9.4686455071192432e-01  -9.4941080407577816e-01  -9.5179229654879094e-01  -9.5424806135949258e-01  -9.5673382425367925e-01  -9.5906501043434722e-01  -9.6173806512149684e-01  -9.6414361780847446e-01  -9.6677105953582898e-01  -9.6927479706122532e-01  -9.7176199208310421e-01  -9.7435092184351124e-01  -9.7669234866152177e-01  -9.7937007531735998e-01  -9.8179993650706843e-01  -9.8438240103751828e-01  -9.8698511353858454e-01  -9.8942898765845089e-01  -9.9214169759281545e-01  -9.9450618428106685e-01  -9.9716077502551248e-01  -9.9958516288110844e-01  -1.0021283955123719e+00  -1.0047398344673177e+00  -1.0071022456189125e+00  -1.0098248644025365e+00  -1.0121819477355170e+00  -1.0147705589159413e+00  -1.0172656165405374e+00  -1.0196440821305557e+00  -1.0222297828407918e+00  -1.0244769681235408e+00  -1.0270188398732834e+00  -1.0293365471905598e+00  -1.0317549201481031e+00  -1.0342472678864874e+00  -1.0365484252084909e+00  -1.0390856166765270e+00  -1.0413383037111410e+00  -1.0437818996755310e+00  -1.0460544514105963e+00  -1.0483271536964800e+00  -1.0507362047078528e+00  -1.0528444254884328e+00  -1.0552630067088187e+00  -1.0574156252009994e+00  -1.0596711822704588e+00  -1.0618536903012474e+00  -1.0639418407481485e+00  -1.0662110699010485e+00  -1.0681770440139786e+00  -1.0703437127897506e+00  -1.0723312943207695e+00  -1.0743686566279300e+00  -1.0764528912117066e+00  -1.0783730330880341e+00  -1.0805183213944372e+00  -1.0822915610627715e+00  -1.0843641128746033e+00  -1.0862721322097162e+00  -1.0881410098809143e+00  -1.0901019710067685e+00  -1.0918108649739369e+00  -1.0936999473439810e+00  -1.0953387620913153e+00  -1.0970315905061092e+00  -1.0986581635367838e+00  -1.1001770962283828e+00  -1.1018493160927507e+00  -1.1032998036689363e+00  -1.1049166833004984e+00  -1.1062940070278102e+00  -1.1078052188381606e+00  -1.1091905278931320e+00  -1.1105440411306635e+00  -1.1119936124638186e+00  -1.1132856141983678e+00  -1.1146184326292203e+00  -1.1158557341078001e+00  -1.1168723550343231e+00  -1.1181370210837167e+00  -1.1191500580160736e+00  -1.1202840594877723e+00  -1.1212797250124777e+00  -1.1222506876705747e+00  -1.1232474689844616e+00  -1.1240376883924614e+00  -1.1250527754968807e+00  -1.1258731274532083e+00  -1.1267369157731342e+00  -1.1274153634703195e+00  -1.1282290004406492e+00  -1.1289614303146425e+00  -1.1294240364444876e+00  -1.1301548352686319e+00  -1.1306316815361446e+00  -1.1311793339415563e+00  -1.1316226078690936e+00  -1.1320260542734992e+00  -1.1324020057210629e+00  -1.1326978583746738e+00  -1.1329891865811950e+00  -1.1331886943164131e+00  -1.1334208606101877e+00  -1.1335224458733653e+00  -1.1336738865188547e+00  -1.1338087636522716e+00  -1.1338442461259968e+00  -1.1338369320520931e+00  -1.1337271285430719e+00  -1.1336567414537460e+00  -1.1335450488627081e+00  -1.1333148033835974e+00  -1.1332053957909907e+00  -1.1329054075491991e+00  -1.1325591259538306e+00  -1.1321568349737494e+00  -1.1317454816690369e+00  -1.1312710591669803e+00  -1.1308018377739995e+00  -1.1303731135619033e+00  -1.1298497063295492e+00  -1.1293324584070157e+00  -1.1286395382551326e+00  -1.1280990737755847e+00  -1.1273350759835294e+00  -1.1266290171514806e+00  -1.1258305760913430e+00  -1.1248465992670722e+00  -1.1241081996357603e+00  -1.1231102089972431e+00  -1.1221351720015889e+00  -1.1211129920049896e+00  -1.1201075504812406e+00  -1.1190392360253671e+00  -1.1178865124447663e+00  -1.1166323248924508e+00  -1.1155058259208515e+00  -1.1142433681744199e+00  -1.1129422816205170e+00  -1.1116131735831385e+00  -1.1103143588385784e+00  -1.1088588806345685e+00  -1.1074673959087320e+00  -1.1060260162775422e+00  -1.1044565399244206e+00  -1.1029968853164021e+00  -1.1013377498267094e+00  -1.0998540438983204e+00  -1.0981566326424579e+00  -1.0965857995618411e+00  -1.0948461077641962e+00  -1.0931377728919496e+00  -1.0914230268106071e+00  -1.0895373723555546e+00  -1.0877916358292994e+00  -1.0858030972677595e+00  -1.0839750830837362e+00  -1.0819562217765069e+00  -1.0799219966092994e+00  -1.0780496395666161e+00  -1.0759086019320010e+00  -1.0739060178639346e+00  -1.0718398311501998e+00  -1.0697880684435037e+00  -1.0677568940439319e+00  -1.0655724949615386e+00  -1.0635227522587822e+00  -1.0613520909406959e+00  -1.0591536115249545e+00  -1.0570061039165550e+00  -1.0547308262734836e+00  -1.0526385627938508e+00  -1.0501704362131736e+00  -1.0479645679598302e+00  -1.0455543796986371e+00  -1.0432402681880510e+00  -1.0408558804845205e+00  -1.0383770466854243e+00  -1.0361256965955781e+00  -1.0335097801135824e+00  -1.0312256813048433e+00  -1.0286930403984373e+00  -1.0263143625022662e+00  -1.0239212152727124e+00  -1.0213526301262987e+00  -1.0190617466540182e+00  -1.0164305722431366e+00  -1.0141065214798912e+00  -1.0115544392422235e+00  -1.0090535081190946e+00  -1.0066520909430432e+00  -1.0039330645854170e+00  -1.0014998790333647e+00  -9.9879234231080061e-01  -9.9627727335222649e-01  -9.9373639584770790e-01  -9.9116836271531839e-01  -9.8874864744520241e-01  -9.8608204253440823e-01  -9.8373555280570268e-01  -9.8104006634307206e-01  -9.7861599044256198e-01  -9.7607249804569851e-01  -9.7339538090529754e-01  -9.7110278891003876e-01  -9.6859615095246954e-01  -9.6607816381127765e-01  -9.6355544801151016e-01  -9.6104844468715001e-01  -9.5867020146799820e-01  -9.5606277444074894e-01  -9.5377