<?xml version="1.0"?>
<VTKFile type="UnstructuredGrid"  version="0.1"  >
<UnstructuredGrid>
<Piece  NumberOfPoints="4272" NumberOfCells="6760">
<Points>
<DataArray  type="Float64"  NumberOfComponents="3"  format="ascii">0 0.01 0  10 0.01 0  0 1.02244766404895 0  10 1.02244766404895 0  0.007129524987038337 0.009997491741717768 0  0.01258064459049757 0.00999219056738478 0  0.01872173241756402 0.009982708334120727 0  0.02429919625640796 0.009970876572043954 0  0.03017238705920286 0.009955108531615313 0  0.03612352734296466 0.0099356743715591 0  0.04164979236492252 0.009914517792428084 0  0.04780928449023854 0.009887415768096998 0  0.05327287671237849 0.009860276931383746 0  0.0593436395885565 0.009826715421083503 0  0.06505608699933001 0.009791870631895848 0  0.07077243060783153 0.009753845329312128 0  0.07684085351634186 0.009710036052663748 0  0.08230528612367993 0.009667566921662384 0  0.08846525752759338 0.009616276826848907 0  0.09398926586603956 0.0095672187064786 0  0.09994377871281757 0.009511110804477986 0  0.10581288515308 0.009452550633355501 0  0.1113930001121819 0.009393893683773193 0  0.1175326299024069 0.009326020378011352 0  0.122983161250664 0.009262856809916281 0  0.1290978349347763 0.009188765415777931 0  0.1347300222736412 0.00911751981665075 0  0.1405327472005438 0.009041131768776852 0  0.1465421455697866 0.008958856277281909 0  0.1520341809431761 0.008880870879718691 0  0.1581991754706344 0.00879018143976357 0  0.1636834803794234 0.008706732874359017 0  0.1697073563005918 0.008612096527554045 0  0.1754901396361989 0.008518345936558386 0  0.1811391035120075 0.008424050210098115 0  0.1872444279222087 0.00831915423323064 0  0.1926961446341008 0.008222899998379215 0  0.198841090009393 0.008111516418624823 0  0.2044064770158165 0.008008028244452866 0  0.2102948627703611 0.007895869216798803 0  0.2162299794791283 0.007780085801116003 0  0.2217647046821167 0.007669675498109103 0  0.2279204403470532 0.007544154739747676 0  0.2333791472114919 0.007430485124751003 0  0.2394590817234977 0.0073013084386626 0  0.245152498789355 0.007177928079207972 0  0.2508861115607116 0.007051356111670669 0  0.2569419868439766 0.006915186417023598 0  0.2624099649457279 0.006790084113692359 0  0.2685711825796066 0.006646722567663751 0  0.274083748205357 0.006516341894728842 0  0.2800541704182985 0.00637292855786236 0  0.2859022845836161 0.006230279166502627 0  0.291495955429921 0.006091868246150131 0  0.2976275706217687 0.005937986548763313 0  0.3030757324287757 0.005799406374294222 0  0.3091980118239236 0.005641654227187252 0  0.3148109405089491 0.005495191514879527 0  0.3206341933715942 0.005341435282378838 0  0.3266248575896781 0.005181393525330103 0  0.3321252080346692 0.005032833254881577 0  0.3382880718234609 0.004864596209960478 0  0.3437628463580178 0.004713611578807419 0  0.3498021006600692 0.004545443593512952 0  0.3555594631656461 0.004383601001460968 0  0.3612291099056053 0.004222822711549606 0  0.3673210805066339 0.004048576418709386 0  0.3727746135437823 0.003891330909934085 0  0.3789246700786391 0.003712634483246944 0  0.3844721023230384 0.00355025746928806 0  0.3903845048135511 0.003376011435332509 0  0.3962935688476314 0.003200699755406988 0  0.4018430601204535 0.00303505085978487 0  0.4079921977692303 0.002850427660455144 0  0.4134449905916002 0.002685819499171436 0  0.4195385366679084 0.002500937932218923 0  0.425204482428441 0.002328206591247292 0  0.4309651825948974 0.00215183074136113 0  0.4370014133195289 0.001966263547608745 0  0.4424769325836848 0.00179732019881714 0  0.4486395183564056 0.001606544730410899 0  0.4541373275735043 0.001435838569361521 0  0.4601308451156257 0.001249254088784412 0  0.4659488863550298 0.001067707976620331 0  0.471564807260988 0.0008921302908496037 0  0.4776843759254726 0.0007004920228137959 0  0.4831317484445766 0.0005296836585198918 0  0.4892643513384632 0.0003372062279158936 0  0.4948528283485032 0.000161696161435303 0  0.5007056813361916 -2.216943068070812e-05 0  0.5066699093509902 -0.000209526046556915 0  0.5121845298566023 -0.0003826949545447442 0  0.5183439831944545 -0.0005759742926309219 0  0.5238088617282698 -0.0007472800272428554 0  0.5298681543527348 -0.0009369594486414562 0  0.5355929349139432 -0.001115856450691032 0  0.5412927239341832 -0.001293613669039852 0  0.5473668732672543 -0.001482588207084091 0  0.5528259073001393 -0.001651967505962102 0  0.5589819336317072 -0.001842386787779294 0  0.5645100189486582 -0.002012797049529044 0  0.5704524332663232 -0.002195301346534757 0  0.5763298911552834 -0.002375058665203144 0  0.5819006708717119 -0.002544689651648297 0  0.5880413281562127 -0.002730768313747055 0  0.5934904284812221 -0.002895042191696308 0  0.5995995320960693 -0.003078202338538874 0  0.605236779888003 -0.003246210954182579 0  0.6110299855290301 -0.003417806240976177 0  0.6170432999212266 -0.00359472323302265 0  0.6225307972792151 -0.00375505261922207 0  0.6286944373476531 -0.003933803567825084 0  0.6341794289295242 -0.004091634709336539 0  0.6401977648984302 -0.004263413669385436 0  0.6459846030577213 -0.004427148756161272 0  0.6516277670629291 -0.004585409549508515 0  0.6577342305863492 -0.004755038487876419 0  0.6631843111407589 -0.004904958327357115 0  0.6693271588517591 -0.005072208653571043 0  0.6748942591145469 -0.005222152905474348 0  0.6807781354428797 -0.005378892074409919 0  0.6867158102497221 -0.005535201343768038 0  0.6922478556369909 -0.005679100421160843 0  0.6984036264198542 -0.005837205328254034 0  0.7038624132928571 -0.005975584427524931 0  0.7099402809449575 -0.006127588021236129 0  0.7156361945945205 -0.006268012368771779 0  0.7213667017809595 -0.006407263887957157 0  0.7274241898103784 -0.006552202568912044 0  0.7328913375361901 -0.006680980644346233 0  0.7390522654079078 -0.006823736587757829 0  0.7445663161830813 -0.006949337256267011 0  0.7505345306161221 -0.007082931996795786 0  0.7563856967966242 -0.007211490056377221 0  0.7619775509571868 -0.007332073958440476 0  0.7681106054434813 -0.007461725199742056 0  0.7735594228940573 -0.007574589702563127 0  0.7796809699364847 -0.007698739982391196 0  0.7852974086111042 -0.007810142587226769 0  0.7911178568436495 -0.007923025648348906 0  0.797112403703894 -0.008036515862006795 0  0.8026119630288198 -0.008138129173272899 0  0.8087760180262171 -0.008249131188213875 0  0.814253500572072 -0.008345174877796967 0  0.8202905515677629 -0.008448166667805387 0  0.8260544286221699 -0.008543663134562481 0  0.831720415905675 -0.008634807324656511 0  0.8378167080097026 -0.008729817306667463 0  0.8432709709919499 -0.008812108559864256 0  0.8494209576248264 -0.008901791974276371 0  0.8549745826348545 -0.008979924427376591 0  0.8608814329347291 -0.009060026011188804 0  0.8667998142885592 -0.009137155111096256 0  0.8723460990452367 -0.009206568509458774 0  0.8784989383774584 -0.009280301817794542 0  0.8839552890388401 -0.009342788637451834 0  0.8900456692707091 -0.009409293585850673 0  0.8957233874467343 -0.009468190513990782 0  0.9014754209053449 -0.009524786393944277 0  0.9075213579987256 -0.009580921173179099 0  0.9129954731058688 -0.009628765913494807 0  0.9191593188847452 -0.009679229788646495 0  0.9246655330424429 -0.009721240864333262 0  0.9306503084472221 -0.009763603884533442 0  0.9364847200361547 -0.009801580348484516 0  0.9420914259676206 -0.009834972127394636 0  0.948219177636862 -0.009867976960504428 0  0.9536688877131657 -0.009894257783109666 0  0.9597979104438458 -0.009920349306153329 0  0.9654020314719589 -0.009940987600901847 0  0.9712398170272581 -0.009959209624459757 0  0.9772219132298864 -0.009974407121723252 0  0.9827297975109929 -0.009985285083248089 0  0.9888934840407251 -0.009993913310034224 0  0.9943667421923366 -0.009998434045983932 0  1.000414962337846 -0.009999991502249178 0  1.00616395254491 -0.009998125110441144 0  1.011844857354635 -0.009993077234903055 0  1.017933801412069 -0.009984132829796667 0  1.023390946643176 -0.00997301205183276 0  1.029544679732296 -0.009956955598792184 0  1.035089558108845 -0.009939300412459717 0  1.041010936359372 -0.009917116481575694 0  1.04691554237944 -0.00989157814857561 0  1.052471258615448 -0.009864440751261633 0  1.05862104751389 -0.009830897850136421 0  1.064075481579663 -0.009798076706746352 0  1.070173358231585 -0.009757978136698224 0  1.075837941143087 -0.00971752009646258 0  1.081604377355612 -0.009673173917302162 0  1.087640686528322 -0.009623351755525641 0  1.093119387704205 -0.009575135453199036 0  1.099284093826516 -0.009517491101966447 0  1.104783734376909 -0.009463052176492596 0  1.110779897618174 -0.009400480030121557 0  1.116599992234411 -0.00933655469875222 0  1.122217899723542 -0.009271889359757672 0  1.128339818747432 -0.009198135031144493 0  1.133789446190431 -0.00912961705214143 0  1.139923317158062 -0.009049295973540348 0  1.145515844317945 -0.008973134373133167 0  1.151367773813766 -0.008890475161473248 0  1.157336906671575 -0.008803064948780913 0  1.16285160438384 -0.008719557366803981 0  1.16901331600552 -0.008623157866544266 0  1.174481522907442 -0.00853490108265173 0  1.180539122189597 -0.008434191931863186 0  1.186271617394136 -0.008336073959344166 0  1.191966996821913 -0.008235914041393521 0  1.198046448076202 -0.008126091334838595 0  1.203505695906331 -0.008024945109277802 0  1.209661806077474 -0.007908057515838151 0  1.21519584913737 -0.007800455577732041 0  1.221132109188887 -0.00768241304184519 0  1.227019087412133 -0.007562711583992629 0  1.232585135446325 -0.007447155722966398 0  1.238729389023077 -0.007316953404904543 0  1.244180486899644 -0.007199156086382225 0  1.250286093435722 -0.007064709646262071 0  1.255932842016573 -0.006938052500145445 0  1.261716857103797 -0.006806053534187844 0  1.26773845151126 -0.006666245775332091 0  1.273222687278595 -0.006536836953056475 0  1.279386853652711 -0.00638906998029936 0  1.284876650734994 -0.006255450389977176 0  1.290887326898431 -0.00610702037198264 0  1.296685536664392 -0.00596177282270944 0  1.30231949087952 -0.005818744638503708 0  1.308431215520824 -
[...]
<PointData  Scalars="Pressure"> 
<DataArray  type="Float64"  Name="Pressure"  format="ascii">-1.1257802621654389e+00  -1.1257802621654389e+00  -9.0393279374250013e-01  -9.0393279374250013e-01  -1.1257383974043325e+00  -1.1256467514167676e+00  -1.1255536992355781e+00  -1.1253868654026216e+00  -1.1252346626841525e+00  -1.1248752237303856e+00  -1.1247172686649756e+00  -1.1243569174749417e+00  -1.1240048429204668e+00  -1.1236283513334235e+00  -1.1231016185877596e+00  -1.1227848074370950e+00  -1.1221153485821644e+00  -1.1216945006131442e+00  -1.1210170060867894e+00  -1.1204034133641665e+00  -1.1197439639516720e+00  -1.1190240799312907e+00  -1.1183158597143152e+00  -1.1174649539561556e+00  -1.1166728537979391e+00  -1.1157885122965729e+00  -1.1148822251126929e+00  -1.1139525578322229e+00  -1.1128630210569586e+00  -1.1119810458719706e+00  -1.1109060442009142e+00  -1.1099062026381954e+00  -1.1088546650513125e+00  -1.1076887256398897e+00  -1.1066339426211802e+00  -1.1053376189949400e+00  -1.1041024810967652e+00  -1.1028224858318700e+00  -1.1014685591084168e+00  -1.1001936072124245e+00  -1.0986985625861083e+00  -1.0974300792597049e+00  -1.0958673276237438e+00  -1.0943958043602866e+00  -1.0929167134241486e+00  -1.0913060701170165e+00  -1.0898526284241137e+00  -1.0881159497771440e+00  -1.0866504006279596e+00  -1.0848922197514332e+00  -1.0832480480232101e+00  -1.0814599958859130e+00  -1.0796443015036337e+00  -1.0780461242169757e+00  -1.0761252395978727e+00  -1.0743793227668024e+00  -1.0724633828767247e+00  -1.0706443194543751e+00  -1.0687684730925719e+00  -1.0667221954166504e+00  -1.0649415503087971e+00  -1.0628076939516904e+00  -1.0608772686574943e+00  -1.0588108495249313e+00  -1.0567085886355638e+00  -1.0547036208536025e+00  -1.0525084503244899e+00  -1.0505195648681556e+00  -1.0482421084407743e+00  -1.0461654052711371e+00  -1.0439673172185184e+00  -1.0417456935741989e+00  -1.0396801006615797e+00  -1.0373588089339769e+00  -1.0352455438296881e+00  -1.0328840768508047e+00  -1.0306537073452386e+00  -1.0283611707230131e+00  -1.0259927548136860e+00  -1.0238744397853121e+00  -1.0213991437058412e+00  -1.0192045501474587e+00  -1.0167737047586061e+00  -1.0144517183870225e+00  -1.0121252307079764e+00  -1.0096074818769025e+00  -1.0073971364236798e+00  -1.0048858464418007e+00  -1.0025968174100854e+00  -1.0001912597486751e+00  -9.9769026800830596e-01  -9.9544499467820535e-01  -9.9286263729540380e-01  -9.9059340162823550e-01  -9.8809715825341782e-01  -9.8573698404136667e-01  -9.8342164324215975e-01  -9.8092496926364559e-01  -9.7877783661105999e-01  -9.7629856026593476e-01  -9.7409833397630896e-01  -9.7171140660389366e-01  -9.6936985861877079e-01  -9.6716593282705676e-01  -9.6470103872886603e-01  -9.6248515597447104e-01  -9.5995840858693893e-01  -9.5768910692120679e-01  -9.5528483651058438e-01  -9.5285779323295372e-01  -9.5065982496285595e-01  -9.4823957702792494e-01  -9.4610860459541513e-01  -9.4376971085231376e-01  -9.4157679882133827e-01  -9.3941134106318658e-01  -9.3713337095723070e-01  -9.3510647051451912e-01  -9.3282404241447814e-01  -9.3086801103738703e-01  -9.2872768121050142e-01  -9.2673866837013541e-01  -9.2480143014399685e-01  -9.2262263744983064e-01  -9.2082743981881932e-01  -9.1881501231363627e-01  -9.1691112431410637e-01  -9.1499212755656656e-01  -9.1312133106011562e-01  -9.1128872535201610e-01  -9.0939045697733623e-01  -9.0766908039888961e-01  -9.0584992819735866e-01  -9.0398306211659940e-01  -9.0225044076889127e-01  -9.0037658083324545e-01  -8.9879082510503017e-01  -8.9703511933387525e-01  -8.9541589905834074e-01  -8.9381950117778464e-01  -8.9215875593322336e-01  -8.9069407495230268e-01  -8.8918152430845454e-01  -8.8789162207952421e-01  -8.8644471941196501e-01  -8.8512893725862385e-01  -8.8379619625274253e-01  -8.8250142380606733e-01  -8.8130622976458917e-01  -8.8005398198405838e-01  -8.7895789959723847e-01  -8.7781031365905160e-01  -8.7667026949764459e-01  -8.7566043258855308e-01  -8.7460248615119573e-01  -8.7372690407560394e-01  -8.7280064498652388e-01  -8.7199334997188316e-01  -8.7119318388414002e-01  -8.7054073331158532e-01  -8.6981083374251178e-01  -8.6910313975309506e-01  -8.6853222507066119e-01  -8.6792882734095311e-01  -8.6740733866851272e-01  -8.6694732807869468e-01  -8.6650849998022572e-01  -8.6615305812971877e-01  -8.6578808297171173e-01  -8.6550053090914925e-01  -8.6519612837908566e-01  -8.6507880072978005e-01  -8.6484934318350459e-01  -8.6472842614180923e-01  -8.6465613926259854e-01  -8.6459327640515404e-01  -8.6458461416323529e-01  -8.6462559334991351e-01  -8.6474465455631100e-01  -8.6486765878729532e-01  -8.6508310114894083e-01  -8.6532922729803230e-01  -8.6559591385648227e-01  -8.6605798477726359e-01  -8.6635368358829434e-01  -8.6682991798472153e-01  -8.6729571857502885e-01  -8.6783875905484353e-01  -8.6840168644719240e-01  -8.6901678873849697e-01  -8.6973200476171042e-01  -8.7047946202542870e-01  -8.7122968774488940e-01  -8.7205665057989012e-01  -8.7296416115178566e-01  -8.7389151650429686e-01  -8.7480376599681797e-01  -8.7594711292500738e-01  -8.7686204547040758e-01  -8.7800907211490831e-01  -8.7905576541730945e-01  -8.8020166390781318e-01  -8.8140309708130060e-01  -8.8259848555278930e-01  -8.8391952758369030e-01  -8.8515592398066012e-01  -8.8657705026694966e-01  -8.8792221932566229e-01  -8.8934422306377092e-01  -8.9093915845063243e-01  -8.9233993828305214e-01  -8.9399874392173062e-01  -8.9550861216414368e-01  -8.9719333886694352e-01  -8.9881746617405134e-01  -9.0042731355244021e-01  -9.0219656699334605e-01  -9.0383144838957707e-01  -9.0574474475057409e-01  -9.0747082268647605e-01  -9.0924637592638236e-01  -9.1115714620901000e-01  -9.1283304814641753e-01  -9.1482823861672469e-01  -9.1662463430137830e-01  -9.1860314422037237e-01  -9.2054714195253706e-01  -9.2243611223215338e-01  -9.2460213480716680e-01  -9.2649208886234613e-01  -9.2874310903688584e-01  -9.3074377430707356e-01  -9.3291016909724578e-01  -9.3515947430328350e-01  -9.3721799216534429e-01  -9.3964045037560151e-01  -9.4180972528730011e-01  -9.4415595306421196e-01  -9.4637976390339451e-01  -9.4855340119467801e-01  -9.5087112621009018e-01  -9.5302288904147092e-01  -9.5548731105987961e-01  -9.5773956183960651e-01  -9.6015331789989011e-01  -9.6257484564081575e-01  -9.6482613860562871e-01  -9.6732575585529768e-01  -9.6950152754863672e-01  -9.7191892645209177e-01  -9.7422240381785163e-01  -9.7660235940322193e-01  -9.7908663796720907e-01  -9.8137486780911898e-01  -9.8395958925256422e-01  -9.8625444034798349e-01  -9.8875071104284995e-01  -9.9115034607421759e-01  -9.9345095219330526e-01  -9.9605908794859077e-01  -9.9826414520275319e-01  -1.0008821168812900e+00  -1.0031420414739143e+00  -1.0055386861029623e+00  -1.0079497140683389e+00  -1.0101398389335883e+00  -1.0125335196437741e+00  -1.0147050506852680e+00  -1.0171015553569849e+00  -1.0193362050109507e+00  -1.0215917966802670e+00  -1.0239937530566339e+00  -1.0260679132630524e+00  -1.0284238327419144e+00  -1.0305720950545327e+00  -1.0328894561800885e+00  -1.0351363288417721e+00  -1.0372910781528837e+00  -1.0396587840105485e+00  -1.0416883219780102e+00  -1.0440397501317185e+00  -1.0460869057839943e+00  -1.0482341832428383e+00  -1.0504003301154983e+00  -1.0523680983066692e+00  -1.0545777151393179e+00  -1.0565246352564566e+00  -1.0586272296890304e+00  -1.0606035669209475e+00  -1.0625365312992783e+00  -1.0645982281467241e+00  -1.0663677720150262e+00  -1.0685271807768262e+00  -1.0702650009618722e+00  -1.0722957736097365e+00  -1.0741367842042309e+00  -1.0759811137120256e+00  -1.0779492544853799e+00  -1.0796258761736433e+00  -1.0816414774374470e+00  -1.0832984194617448e+00  -1.0851779671137431e+00  -1.0868094019602936e+00  -1.0884623782677114e+00  -1.0901806318309708e+00  -1.0915292944171411e+00  -1.0932090708749249e+00  -1.0946077844075481e+00  -1.0960155722358824e+00  -1.0975002586860907e+00  -1.0987616799524440e+00  -1.1002752377129261e+00  -1.1015063791488631e+00  -1.1028980973268876e+00  -1.1041453144255713e+00  -1.1054035762789507e+00  -1.1067346751027125e+00  -1.1078889282796025e+00  -1.1090783842831593e+00  -1.1101222689802341e+00  -1.1111419537505864e+00  -1.1122036637141617e+00  -1.1131709458765675e+00  -1.1141865592973650e+00  -1.1149721324461603e+00  -1.1160040813181746e+00  -1.1167128035975886e+00  -1.1176237611314979e+00  -1.1184345035376304e+00  -1.1191811388336617e+00  -1.1199305778729829e+00  -1.1205824253158425e+00  -1.1212234570804485e+00  -1.1218136889469184e+00  -1.1223449973838646e+00  -1.1228588739927730e+00  -1.1232608106436657e+00  -1.1236938537679351e+00  -1.1240244037892544e+00  -1.1243823907639563e+00  -1.1245536477348199e+00  -1.1249089523162565e+00  -1.1251285772983390e+00  -1.1253020765896689e+00  -1.1254445714829273e+00  -1.1254180143150985e+00  -1.1255326662125231e+00  -1.1254566351331798e+00  -1.1254037313447178e+00  -1.1253444422858458e+00  -1.1252340618558376e+00  -1.1250969098418109e+00  -1.1248752417781791e+00  -1.1246714605594377e+00  -1.1244909222031765e+00  -1.1242333183049544e+00  -1.1239930009047794e+00  -1.1237054374715532e+00  -1.1233018294576329e+00  -1.1228365862487897e+00  -1.1223905420650901e+00  -1.1218503259322810e+00  -1.1212968805389640e+00  -1.1207073894928776e+00  -1.1199136783678600e+00  -1.1193340538581724e+00  -1.1185192559664168e+00  -1.1177010027457468e+00  -1.1170053884509523e+00  -1.1160435147900314e+00  -1.1153128999658033e+00  -1.1142645956713870e+00  -1.1134339787048240e+00  -1.1123932826273395e+00  -1.1114180206663546e+00  -1.1103280597806711e+00  -1.1092208394958962e+00  -1.1081623711808988e+00  -1.1069865838931661e+00  -1.1058692847483811e+00  -1.1045801954868928e+00  -1.1033157664028395e+00  -1.1020431144226142e+00  -1.1005982907577818e+00  -1.0993928567709190e+00  -1.0978745079125631e+00  -1.0964302031517246e+00  -1.0949805355484898e+00  -1.0933920439416600e+00  -1.0919060512823417e+00  -1.0902268963389206e+00  -1.0886884064808267e+00  -1.0870812476258152e+00  -1.0854658560895192e+00  -1.0838440934553466e+00  -1.0820815971386111e+00  -1.0803820190806703e+00  -1.0784534993450321e+00  -1.0767316629679478e+00  -1.0748065930585240e+00  -1.0729341038824158e+00  -1.0711770281551378e+00  -1.0691888028887928e+00  -1.0673383471186757e+00  -1.0653159359465327e+00  -1.0633197406700927e+00  -1.0613083445231630e+00  -1.0592032337845747e+00  -1.0572705827790592e+00  -1.0550918781469156e+00  -1.0531191397935682e+00  -1.0509068154905323e+00  -1.0488172425099078e+00  -1.0466979025874548e+00  -1.0444577825190564e+00  -1.0424344090439126e+00  -1.0401628084860575e+00  -1.0380868376366372e+00  -1.0357871921316624e+00  -1.0335219803243634e+00  -1.0313252613135189e+00  -1.0289017584408693e+00  -1.0267414960330417e+00  -1.0242778926547065e+00  -1.0221587702443722e+00  -1.0198906096844294e+00  -1.0174923335950306e+00  -1.0153716526119223e+00  -1.0128675693107780e+00  -1.0106857142997310e+00  -1.0081945470907396e+00  -1.0058663510108961e+00  -1.0035274951865387e+00  -1.0010227444691544e+00  -9.9879888562844743e-01  -9.9629331350687489e-01  -9.9403971288560067e-01  -9.9158880626802037e-01  -9.8917224659205438e-01  -9.8685517018518953e-01  -9.8432048961655494e-01  -9.8207376944572355e-01  -9.7952927772887077e-01  -9.7723089686400111e-01  -9.7484065598106739e-01  -9.7234499458224699e-01  -9.7008542995542291e-01  -9.6755217896874490e-01  -9.6534844964339739e-01  -9.6291352976050437e-01  -9.6062256828985881e-01  -9.5839336087200366e-01  -9.5597894435281339e-01  -9.5379094263644038e-01  -9.5139040947351672e-01  -9.4928256601029759e-01  -9.4700911773812035e-01  -9.4472752435577689e-01  -9.4266452812867985e-01  -9.4026278386561413e-01  -9.3818660159883904e-01  -9.3589078747198962e-01  -9.3374188521352530e-01  -9.3163273411893799e-01  -9.2945612084302009e-01  -9.2751011603298239e-01  -9.2526216591615595e-01  -9.2336826661281157e-01  -9.2119685296338438e-01  -9.1917253814086031e-01  -9.1726162339662642e-01  -9.1519122670270914e-01  -9.1341191800176424e-01  -9.1142018620682252e-01  -9.0961636549867497e-01  -9.0768683655067628e-01  -9.0587245823829499e-01  -9.0410697044751076e-01  -9.0220480936029368e-01  -9.0068806484923269e-01  -8.9882994546551709e-01  -8.9728080520282627e-01  -8.9563542538641527e-01  -8.9405659710613272e-01  -8.9255374322802739e-01  -8.9095756546291505e-01  -8.8955191046816684e-01  -8.8805994499846863e-01  -8.8673991263499141e-01  -8.8539492925022711e-01  -8.8399718619861767e-01  -8.8289660751159582e-01  -8.8147141989515376e-01  -8.8038095596680987e-01  -8.7914064534944991e-01  -8.7814125073374594e-01  -8.7707407712698759e-01  -8.7606634141182260e-01  -8.7517786499838468e-01  -8.7417278290922040e-01  -8.7339661439912952e-01  -8.7245763221758077e-01  -8.7157226478108674e-01  -8.7094042042610853e-01  -8.7001811569880194e-01  -8.6947611514847978e-01  -8.6865905464173199e-01  -8.6817202182811515e-01  -8.6754217967615566e-01  -8.6704863488868844e-01  -8.6663049574339246e-01  -8.6620290746558826e-01  -8.6595072867514145e-01  -8.6558669360935636e-01  -8.6533992991270492e-01  -8.6518209813048186e-01  -8.6489759751702799e-01  -8.6478933481706854e-01  -8.6466527764805357e-01  -8.6460374216834113e-01  -8.6458892725182945e-01  -8.6462914480570519e-01  -8.6469671461900810e-01  -8.6481592111937289e-01  -8.6507508320698812e-01  -8.6528051120695737e-01  -8.6565962146326481e-01  -8.6597987960744638e-01  -8.6639314786199850e-01  -8.6679607409538950e-01  -8.6725720543084250e-01  -8.6776270128730526e-01  -8.6827625399606179e-01  -8.6901798274926434e-01  -8.6957189174104599e-01  -8.7038047439497912e-01  -8.7121481847563054e-01  -8.7192679387628169e-01  -8.7282250321540267e-01  -8.7356956210244685e-01  -8.7455080422424047e-01  -8.7546154920550934e-01  -8.7653716213638466e-01  -8.7757440285010579e-01  -8.7865728421580935e-01  -8.7986391991214585e-01  -8.8089205587510733e-01  -8.8218627359952806e-01  -8.8341094065607517e-01  -8.8475237621546454e-01  -8.8612008972396350e-01  -8.8742717231317914e-01  -8.8894123950024273e-01  -8.9030532004881402e-01  -8.9190127097610750e-01  -8.9337897013890588e-01  -8.9491809549060530e-01  -8.9664476806027504e-01  -8.9812456430477106e-01  -8.9992971282484635e-01  -9.0152525979330522e-01  -9.0330943555863452e-01  -9.0504850236561629e-01  -9.0676605865834048e-01  -9.0874776465063656e-01  -9.1045776330955619e-01  -9.1249971797691376e-01  -9.1432158243130979e-01  -9.1627735312890168e-01  -9.1832664711523748e-01  -9.2016791183536140e-01  -9.2233269965536513e-01  -9.2424479624879563e-01  -9.2638468568548338e-01  -9.2838015028324439e-01  -9.3039110926414792e-01  -9.3257099100374363e-01  -9.3466590179181286e-01  -9.3685076234080866e-01  -9.3895885840947180e-01  -9.4119377104721891e-01  -9.4343920058431507e-01  -9.4557021484030734e-01  -9.4795175569153733e-01  -9.5013842388923508e-01  -9.5259980528994925e-01  -9.5483555643780893e-01  -9.5719746829563557e-01  -9.5960897036463599e-01  -9.6182778184374063e-01  -9.6433425075529744e-01  -9.6655735260091846e-01  -9.6897522572057460e-01  -9.7131014291460493e-01  -9.7353202698430341e-01  -9.7607286953325967e-01  -9.7825130851798958e-01  -9.8080520045466713e-01  -9.8306360780823909e-01  -9.8548968678917614e-01  -9.8790335716074429e-01  -9.9016102233895498e-01  -9.9270198304178148e-01  -9.9491112647931479e-01  -9.9736950941794966e-01  -9.9963661416101601e-01  -1.0019843635708585e+00  -1.0044339127972575e+00  -1.0066240218006144e+00  -1.0091127275025100e+00  -1.0113579155915435e+00  -1.0138183037205895e+00  -1.0161982095786255e+00  -1.0185410450294277e+00  -1.0210012910352704e+00  -1.0232797828202786e+00  -1.0257667546497098e+00  -1.0280323210918294e+00  -1.0304070840590749e+00  -1.0327562170869318e+00  -1.0348883486274481e+00  -1.0372325466417009e+00  -1.0393109548079895e+00  -1.0415498453297667e+00  -1.0436401771100909e+00  -1.0457347811892523e+00  -1.0479218962862831e+00  -1.0498481056793396e+00  -1.0521665380890224e+00  -1.0540856600188055e+00  -1.0563351124217815e+00  -1.0583323404268978e+00  -1.0603025366318248e+00  -1.0623777439612287e+00  -1.0642057454968517e+00  -1.0662027485408396e+00  -1.0681429519146679e+00  -1.0700894186371870e+00  -1.0720474604551524e+00  -1.0738681441170557e+00  -1.0758569321405864e+00  -1.0775927757400778e+00  -1.0794588565751977e+00  -1.0812107328444558e+00  -1.0829316268558766e+00  -1.0846184659078568e+00  -1.0862324539788422e+00  -1.0879119986652885e+00  -1.0894197553013834e+00  -1.0910219980034042e+00  -1.0925350374640936e+00  -1.0939795528157252e+00  -1.0955197997651398e+00  -1.0969176588624454e+00  -1.0983923851874482e+00  -1.0997584771578901e+00  -1.1011512320720165e+00  -1.1024543384961381e+00  -1.1037649298521748e+00  -1.1051060313151431e+00  -1.1062719591680374e+00  -1.1075265302901709e+00  -1.1086391090745253e+00  -1.1097903744103339e+00  -1.1110067112610396e+00  -1.1120115274810376e+00  -1.1131334800590051e+00  -1.1139662631837539e+00  -1.1149969108558986e+00  -1.1158910171223673e+00  -1.1167077553826719e+00  -1.1175928884892814e+00  -1.1182100934627603e+00  -1.1190676084459938e+00  -1.1197127377223099e+00  -1.1203454718940020e+00  -1.1209547663374198e+00  -1.1214741258923324e+00  -1.1219961191123704e+00  -1.1224460424658635e+00  -1.1229782797921417e+00  -1.1233309026081344e+00  -1.1238496267101126e+00  -1.1242066996601752e+00  -1.1244755415109915e+00  -1.1247674835798975e+00  -1.1250120874452838e+00  -1.1252409889631416e+00  -1.1254308537189948e+00  -1.1254589541072118e+00  -1.1256533714387473e+00  -1.1256569441051938e+00  -1.1256920388584655e+00  -1.1256733876592908e+00  -1.1256507706590604e+00  -1.1256025122612834e+00  -1.1253714803459711e+00  -1.1253756167104778e+00  -1.1250153217939014e+00  -1.1249027772732219e+00  -1.1244769579842129e+00  -1.1242257220846015e+00  -1.1237354557520589e+00  -1.1232234667198360e+00  -1.1226866158900470e+00  -1.1219435645649207e+00  -1.1214517201249332e+00  -1.1205730073991207e+00  -1.1200375986518147e+00  -1.1192246037002682e+00  -1.1184665514766756e+00  -1.1177076799784000e+00  -1.1168664962913613e+00  -1.1160395156622342e+00  -1.1151331188899953e+00  -1.1142275023635202e+00  -1.1132001629135559e+00  -1.1122834227211158e+00  -1.1113448971690252e+00  -1.1103277262212392e+00  -1.1094423640487341e+00  -1.1083441121789617e+00  -1.1072209304889824e+00  -1.1061061143226265e+00  -1.1048796854642033e+00  -1.1037182037510638e+00  -1.1023943600025337e+00  -1.1010542258661227e+00  -1.0996980666808456e+00  -1.0982683386238650e+00  -1.0968210564492200e+00  -1.0953259804141910e+00  -1.0939001124604459e+00  -1.0922995573881029e+00  -1.0908242506105306e+00  -1.0891342337227299e+00  -1.0874667997752849e+00  -1.0858856499907839e+00  -1.0840488193892830e+00  -1.0825220311450792e+00  -1.0806414119720147e+00  -1.0789602596146446e+00  -1.0771499241583049e+00  -1.0752898630694707e+00  -1.0735360696530714e+00  -1.0715790635738036e+00  -1.0697916052581498e+00  -1.0677787727229229e+00  -1.0658610232557790e+00  -1.0638984544986128e+00  -1.0618404503935706e+00  -1.0599151980720767e+00  -1.0577542737198116e+00  -1.0557841998188267e+00  -1.0536215144597973e+00  -1.0515128925128130e+00  -1.0495147159711615e+00  -1.0472439148456905e+00  -1.0452332587015538e+00  -1.0430009759651655e+00  -1.0409000134171102e+00  -1.0387170474072505e+00  -1.0364691582395149e+00  -1.0343611230869147e+00  -1.0319878233315507e+00  -1.0298421937598585e+00  -1.0274404071293888e+00  -1.0251667235254880e+00  -1.0228705964788536e+00  -1.0204220661146282e+00  -1.0182465361338255e+00  -1.0157249904085306e+00  -1.0134586133269587e+00  -1.0110189939876739e+00  -1.0086124612050889e+00  -1.0063122595320673e+00  -1.0038219404197808e+00  -1.0015993509164349e+00  -9.9906187159582593e-01  -9.9676274861702252e-01  -9.9437817271083462e-01  -9.9188212960276734e-01  -9.8961515255911248e-01  -9.8705094272665883e-01  -9.8479256190392273e-01  -9.8231363324696774e-01  -9.7992915550467108e-01  -9.7756251925084281e-01  -9.7506802877976340e-01  -9.7282164819986983e-01  -9.7029978137778938e-01  -9.6814255476963818e-01  -9.6577207469703807e-01  -9.6341676788907527e-01  -9.6122845007919122e-01  -9.5875314854273186e-01  -9.5662