<?xml version="1.0"?>
<VTKFile type="UnstructuredGrid"  version="0.1"  >
<UnstructuredGrid>
<Piece  NumberOfPoints="4268" NumberOfCells="6752">
<Points>
<DataArray  type="Float64"  NumberOfComponents="3"  format="ascii">0 0.01 0  10 0.01 0  0 1.028869273702567 0  10 1.028869273702567 0  0.007129524987038337 0.009997491741717768 0  0.01258064459049757 0.00999219056738478 0  0.01872173241756402 0.009982708334120727 0  0.02429919625640796 0.009970876572043954 0  0.03017238705920286 0.009955108531615313 0  0.03612352734296466 0.0099356743715591 0  0.04164979236492252 0.009914517792428084 0  0.04780928449023854 0.009887415768096998 0  0.05327287671237849 0.009860276931383746 0  0.0593436395885565 0.009826715421083503 0  0.06505608699933001 0.009791870631895848 0  0.07077243060783153 0.009753845329312128 0  0.07684085351634186 0.009710036052663748 0  0.08230528612367993 0.009667566921662384 0  0.08846525752759338 0.009616276826848907 0  0.09398926586603956 0.0095672187064786 0  0.09994377871281757 0.009511110804477986 0  0.10581288515308 0.009452550633355501 0  0.1113930001121819 0.009393893683773193 0  0.1175326299024069 0.009326020378011352 0  0.122983161250664 0.009262856809916281 0  0.1290978349347763 0.009188765415777931 0  0.1347300222736412 0.00911751981665075 0  0.1405327472005438 0.009041131768776852 0  0.1465421455697866 0.008958856277281909 0  0.1520341809431761 0.008880870879718691 0  0.1581991754706344 0.00879018143976357 0  0.1636834803794234 0.008706732874359017 0  0.1697073563005918 0.008612096527554045 0  0.1754901396361989 0.008518345936558386 0  0.1811391035120075 0.008424050210098115 0  0.1872444279222087 0.00831915423323064 0  0.1926961446341008 0.008222899998379215 0  0.198841090009393 0.008111516418624823 0  0.2044064770158165 0.008008028244452866 0  0.2102948627703611 0.007895869216798803 0  0.2162299794791283 0.007780085801116003 0  0.2217647046821167 0.007669675498109103 0  0.2279204403470532 0.007544154739747676 0  0.2333791472114919 0.007430485124751003 0  0.2394590817234977 0.0073013084386626 0  0.245152498789355 0.007177928079207972 0  0.2508861115607116 0.007051356111670669 0  0.2569419868439766 0.006915186417023598 0  0.2624099649457279 0.006790084113692359 0  0.2685711825796066 0.006646722567663751 0  0.274083748205357 0.006516341894728842 0  0.2800541704182985 0.00637292855786236 0  0.2859022845836161 0.006230279166502627 0  0.291495955429921 0.006091868246150131 0  0.2976275706217687 0.005937986548763313 0  0.3030757324287757 0.005799406374294222 0  0.3091980118239236 0.005641654227187252 0  0.3148109405089491 0.005495191514879527 0  0.3206341933715942 0.005341435282378838 0  0.3266248575896781 0.005181393525330103 0  0.3321252080346692 0.005032833254881577 0  0.3382880718234609 0.004864596209960478 0  0.3437628463580178 0.004713611578807419 0  0.3498021006600692 0.004545443593512952 0  0.3555594631656461 0.004383601001460968 0  0.3612291099056053 0.004222822711549606 0  0.3673210805066339 0.004048576418709386 0  0.3727746135437823 0.003891330909934085 0  0.3789246700786391 0.003712634483246944 0  0.3844721023230384 0.00355025746928806 0  0.3903845048135511 0.003376011435332509 0  0.3962935688476314 0.003200699755406988 0  0.4018430601204535 0.00303505085978487 0  0.4079921977692303 0.002850427660455144 0  0.4134449905916002 0.002685819499171436 0  0.4195385366679084 0.002500937932218923 0  0.425204482428441 0.002328206591247292 0  0.4309651825948974 0.00215183074136113 0  0.4370014133195289 0.001966263547608745 0  0.4424769325836848 0.00179732019881714 0  0.4486395183564056 0.001606544730410899 0  0.4541373275735043 0.001435838569361521 0  0.4601308451156257 0.001249254088784412 0  0.4659488863550298 0.001067707976620331 0  0.471564807260988 0.0008921302908496037 0  0.4776843759254726 0.0007004920228137959 0  0.4831317484445766 0.0005296836585198918 0  0.4892643513384632 0.0003372062279158936 0  0.4948528283485032 0.000161696161435303 0  0.5007056813361916 -2.216943068070812e-05 0  0.5066699093509902 -0.000209526046556915 0  0.5121845298566023 -0.0003826949545447442 0  0.5183439831944545 -0.0005759742926309219 0  0.5238088617282698 -0.0007472800272428554 0  0.5298681543527348 -0.0009369594486414562 0  0.5355929349139432 -0.001115856450691032 0  0.5412927239341832 -0.001293613669039852 0  0.5473668732672543 -0.001482588207084091 0  0.5528259073001393 -0.001651967505962102 0  0.5589819336317072 -0.001842386787779294 0  0.5645100189486582 -0.002012797049529044 0  0.5704524332663232 -0.002195301346534757 0  0.5763298911552834 -0.002375058665203144 0  0.5819006708717119 -0.002544689651648297 0  0.5880413281562127 -0.002730768313747055 0  0.5934904284812221 -0.002895042191696308 0  0.5995995320960693 -0.003078202338538874 0  0.605236779888003 -0.003246210954182579 0  0.6110299855290301 -0.003417806240976177 0  0.6170432999212266 -0.00359472323302265 0  0.6225307972792151 -0.00375505261922207 0  0.6286944373476531 -0.003933803567825084 0  0.6341794289295242 -0.004091634709336539 0  0.6401977648984302 -0.004263413669385436 0  0.6459846030577213 -0.004427148756161272 0  0.6516277670629291 -0.004585409549508515 0  0.6577342305863492 -0.004755038487876419 0  0.6631843111407589 -0.004904958327357115 0  0.6693271588517591 -0.005072208653571043 0  0.6748942591145469 -0.005222152905474348 0  0.6807781354428797 -0.005378892074409919 0  0.6867158102497221 -0.005535201343768038 0  0.6922478556369909 -0.005679100421160843 0  0.6984036264198542 -0.005837205328254034 0  0.7038624132928571 -0.005975584427524931 0  0.7099402809449575 -0.006127588021236129 0  0.7156361945945205 -0.006268012368771779 0  0.7213667017809595 -0.006407263887957157 0  0.7274241898103784 -0.006552202568912044 0  0.7328913375361901 -0.006680980644346233 0  0.7390522654079078 -0.006823736587757829 0  0.7445663161830813 -0.006949337256267011 0  0.7505345306161221 -0.007082931996795786 0  0.7563856967966242 -0.007211490056377221 0  0.7619775509571868 -0.007332073958440476 0  0.7681106054434813 -0.007461725199742056 0  0.7735594228940573 -0.007574589702563127 0  0.7796809699364847 -0.007698739982391196 0  0.7852974086111042 -0.007810142587226769 0  0.7911178568436495 -0.007923025648348906 0  0.797112403703894 -0.008036515862006795 0  0.8026119630288198 -0.008138129173272899 0  0.8087760180262171 -0.008249131188213875 0  0.814253500572072 -0.008345174877796967 0  0.8202905515677629 -0.008448166667805387 0  0.8260544286221699 -0.008543663134562481 0  0.831720415905675 -0.008634807324656511 0  0.8378167080097026 -0.008729817306667463 0  0.8432709709919499 -0.008812108559864256 0  0.8494209576248264 -0.008901791974276371 0  0.8549745826348545 -0.008979924427376591 0  0.8608814329347291 -0.009060026011188804 0  0.8667998142885592 -0.009137155111096256 0  0.8723460990452367 -0.009206568509458774 0  0.8784989383774584 -0.009280301817794542 0  0.8839552890388401 -0.009342788637451834 0  0.8900456692707091 -0.009409293585850673 0  0.8957233874467343 -0.009468190513990782 0  0.9014754209053449 -0.009524786393944277 0  0.9075213579987256 -0.009580921173179099 0  0.9129954731058688 -0.009628765913494807 0  0.9191593188847452 -0.009679229788646495 0  0.9246655330424429 -0.009721240864333262 0  0.9306503084472221 -0.009763603884533442 0  0.9364847200361547 -0.009801580348484516 0  0.9420914259676206 -0.009834972127394636 0  0.948219177636862 -0.009867976960504428 0  0.9536688877131657 -0.009894257783109666 0  0.9597979104438458 -0.009920349306153329 0  0.9654020314719589 -0.009940987600901847 0  0.9712398170272581 -0.009959209624459757 0  0.9772219132298864 -0.009974407121723252 0  0.9827297975109929 -0.009985285083248089 0  0.9888934840407251 -0.009993913310034224 0  0.9943667421923366 -0.009998434045983932 0  1.000414962337846 -0.009999991502249178 0  1.00616395254491 -0.009998125110441144 0  1.011844857354635 -0.009993077234903055 0  1.017933801412069 -0.009984132829796667 0  1.023390946643176 -0.00997301205183276 0  1.029544679732296 -0.009956955598792184 0  1.035089558108845 -0.009939300412459717 0  1.041010936359372 -0.009917116481575694 0  1.04691554237944 -0.00989157814857561 0  1.052471258615448 -0.009864440751261633 0  1.05862104751389 -0.009830897850136421 0  1.064075481579663 -0.009798076706746352 0  1.070173358231585 -0.009757978136698224 0  1.075837941143087 -0.00971752009646258 0  1.081604377355612 -0.009673173917302162 0  1.087640686528322 -0.009623351755525641 0  1.093119387704205 -0.009575135453199036 0  1.099284093826516 -0.009517491101966447 0  1.104783734376909 -0.009463052176492596 0  1.110779897618174 -0.009400480030121557 0  1.116599992234411 -0.00933655469875222 0  1.122217899723542 -0.009271889359757672 0  1.128339818747432 -0.009198135031144493 0  1.133789446190431 -0.00912961705214143 0  1.139923317158062 -0.009049295973540348 0  1.145515844317945 -0.008973134373133167 0  1.151367773813766 -0.008890475161473248 0  1.157336906671575 -0.008803064948780913 0  1.16285160438384 -0.008719557366803981 0  1.16901331600552 -0.008623157866544266 0  1.174481522907442 -0.00853490108265173 0  1.180539122189597 -0.008434191931863186 0  1.186271617394136 -0.008336073959344166 0  1.191966996821913 -0.008235914041393521 0  1.198046448076202 -0.008126091334838595 0  1.203505695906331 -0.008024945109277802 0  1.209661806077474 -0.007908057515838151 0  1.21519584913737 -0.007800455577732041 0  1.221132109188887 -0.00768241304184519 0  1.227019087412133 -0.007562711583992629 0  1.232585135446325 -0.007447155722966398 0  1.238729389023077 -0.007316953404904543 0  1.244180486899644 -0.007199156086382225 0  1.250286093435722 -0.007064709646262071 0  1.255932842016573 -0.006938052500145445 0  1.261716857103797 -0.006806053534187844 0  1.26773845151126 -0.006666245775332091 0  1.273222687278595 -0.006536836953056475 0  1.279386853652711 -0.00638906998029936 0  1.284876650734994 -0.006255450389977176 0  1.290887326898431 -0.00610702037198264 0  1.296685536664392 -0.00596177282270944 0  1.30231949087952 -0.005818744638503708 0  1.308431215520824
[...]
<PointData  Tensors="Total Stress"> 
<DataArray  type="Float64"  Name="Total Stress"  NumberOfComponents="9" format="ascii">1.2163472807458147e+00 3.1049432542983087e-05 0.0000000000000000e+00 3.1049432542983107e-05 2.4901277962783356e-02 0.0000000000000000e+00 0.0000000000000000e+00 0.0000000000000000e+00 0.0000000000000000e+00  1.2163472807458147e+00 3.1049432542983087e-05 0.0000000000000000e+00 3.1049432542983107e-05 2.4901277962783356e-02 0.0000000000000000e+00 0.0000000000000000e+00 0.0000000000000000e+00 0.0000000000000000e+00  7.7766606353925438e-01 -1.9669696338225306e-05 0.0000000000000000e+00 -1.9669696338225441e-05 -4.5198174874756577e-03 0.0000000000000000e+00 0.0000000000000000e+00 0.0000000000000000e+00 0.0000000000000000e+00  7.7766606353925438e-01 -1.9669696338225306e-05 0.0000000000000000e+00 -1.9669696338225441e-05 -4.5198174874756577e-03 0.0000000000000000e+00 0.0000000000000000e+00 0.0000000000000000e+00 0.0000000000000000e+00  1.2162919327783654e+00 -1.6337954758350061e-03 0.0000000000000000e+00 -1.6337954758350061e-03 2.4822368284057275e-02 0.0000000000000000e+00 0.0000000000000000e+00 0.0000000000000000e+00 0.0000000000000000e+00  1.2161832222498699e+00 -2.9687043681547024e-03 0.0000000000000000e+00 -2.9687043681547024e-03 2.4801355042680284e-02 0.0000000000000000e+00 0.0000000000000000e+00 0.0000000000000000e+00 0.0000000000000000e+00  1.2159955336267323e+00 -4.3610784803511399e-03 0.0000000000000000e+00 -4.3610784803511399e-03 2.4817418014461093e-02 0.0000000000000000e+00 0.0000000000000000e+00 0.0000000000000000e+00 0.0000000000000000e+00  1.2157290039684374e+00 -5.7159631749160878e-03 0.0000000000000000e+00 -5.7159631749160878e-03 2.4775722559376420e-02 0.0000000000000000e+00 0.0000000000000000e+00 0.0000000000000000e+00 0.0000000000000000e+00  1.2154319082826546e+00 -7.0973038320116515e-03 0.0000000000000000e+00 -7.0973038320116515e-03 2.4800144431412752e-02 0.0000000000000000e+00 0.0000000000000000e+00 0.0000000000000000e+00 0.0000000000000000e+00  1.2149247001039893e+00 -8.4905763743988259e-03 0.0000000000000000e+00 -8.4905763743988259e-03 2.4632879269279703e-02 0.0000000000000000e+00 0.0000000000000000e+00 0.0000000000000000e+00 0.0000000000000000e+00  1.2145536731976478e+00 -9.7955470096416069e-03 0.0000000000000000e+00 -9.7955470096416069e-03 2.4717997114644747e-02 0.0000000000000000e+00 0.0000000000000000e+00 0.0000000000000000e+00 0.0000000000000000e+00  1.2139344323168040e+00 -1.1183810520523804e-02 0.0000000000000000e+00 -1.1183810520523804e-02 2.4679314553737348e-02 0.0000000000000000e+00 0.0000000000000000e+00 0.0000000000000000e+00 0.0000000000000000e+00  1.2133410400341194e+00 -1.2518637372473780e-02 0.0000000000000000e+00 -1.2518637372473780e-02 2.4616930816169617e-02 0.0000000000000000e+00 0.0000000000000000e+00 0.0000000000000000e+00 0.0000000000000000e+00  1.2126682190872460e+00 -1.3938192313448918e-02 0.0000000000000000e+00 -1.3938192313448918e-02 2.4597987676669365e-02 0.0000000000000000e+00 0.0000000000000000e+00 0.0000000000000000e+00 0.0000000000000000e+00  1.2118330600230871e+00 -1.5232709398146617e-02 0.0000000000000000e+00 -1.5232709398146617e-02 2.4432786999997277e-02 0.0000000000000000e+00 0.0000000000000000e+00 0.0000000000000000e+00 0.0000000000000000e+00  1.2111753415217561e+00 -1.6515963400644127e-02 0.0000000000000000e+00 -1.6515963400644127e-02 2.4525825976085491e-02 0.0000000000000000e+00 0.0000000000000000e+00 0.0000000000000000e+00 0.0000000000000000e+00  1.2100950047811119e+00 -1.7961131074763510e-02 0.0000000000000000e+00 -1.7961131074763510e-02 2.4304246532720338e-02 0.0000000000000000e+00 0.0000000000000000e+00 0.0000000000000000e+00 0.0000000000000000e+00  1.2092846310599186e+00 -1.9257603796639711e-02 0.0000000000000000e+00 -1.9257603796639714e-02 2.4336929457391656e-02 0.0000000000000000e+00 0.0000000000000000e+00 0.0000000000000000e+00 0.0000000000000000e+00  1.2080784658046984e+00 -2.0643256334571227e-02 0.0000000000000000e+00 -2.0643256334571241e-02 2.4216969080185669e-02 0.0000000000000000e+00 0.0000000000000000e+00 0.0000000000000000e+00 0.0000000000000000e+00  1.2069756456593259e+00 -2.1929455411274168e-02 0.0000000000000000e+00 -2.1929455411274171e-02 2.4129534891870728e-02 0.0000000000000000e+00 0.0000000000000000e+00 0.0000000000000000e+00 0.0000000000000000e+00  1.2057855898444163e+00 -2.3287147872040982e-02 0.0000000000000000e+00 -2.3287147872040979e-02 2.4038388539422230e-02 0.0000000000000000e+00 0.0000000000000000e+00 0.0000000000000000e+00 0.0000000000000000e+00  1.2045088247352571e+00 -2.4598678103458210e-02 0.0000000000000000e+00 -2.4598678103458217e-02 2.3930183515425120e-02 0.0000000000000000e+00 0.0000000000000000e+00 0.0000000000000000e+00 0.0000000000000000e+00  1.2032111363558646e+00 -2.5857041933528124e-02 0.0000000000000000e+00 -2.5857041933528124e-02 2.3816772520168457e-02 0.0000000000000000e+00 0.0000000000000000e+00 0.0000000000000000e+00 0.0000000000000000e+00  1.2017104073923479e+00 -2.7211676480559062e-02 0.0000000000000000e+00 -2.7211676480559062e-02 2.3660143736987875e-02 0.0000000000000000e+00 0.0000000000000000e+00 0.0000000000000000e+00 0.0000000000000000e+00  1.2003307247256876e+00 -2.8396572526466862e-02 0.0000000000000000e+00 -2.8396572526466862e-02 2.3554109848712531e-02 0.0000000000000000e+00 0.0000000000000000e+00 0.0000000000000000e+00 0.0000000000000000e+00  1.1987261255100317e+00 -2.9742770148368326e-02 0.0000000000000000e+00 -2.9742770148368333e-02 2.3421201179952708e-02 0.0000000000000000e+00 0.0000000000000000e+00 0.0000000000000000e+00 0.0000000000000000e+00  1.1971409656481922e+00 -3.0924280799944005e-02 0.0000000000000000e+00 -3.0924280799944005e-02 2.3285553705344682e-02 0.0000000000000000e+00 0.0000000000000000e+00 0.0000000000000000e+00 0.0000000000000000e+00  1.1954925899185764e+00 -3.2077058298294200e-02 0.0000000000000000e+00 -3.2077058298294187e-02 2.3176369465071772e-02 0.0000000000000000e+00 0.0000000000000000e+00 0.0000000000000000e+00 0.0000000000000000e+00  1.1936561818092357e+00 -3.3392437177085718e-02 0.0000000000000000e+00 -3.3392437177085704e-02 2.2965142275204024e-02 0.0000000000000000e+00 0.0000000000000000e+00 0.0000000000000000e+00 0.0000000000000000e+00  1.1920280686674758e+00 -3.4535044504625266e-02 0.0000000000000000e+00 -3.4535044504625266e-02 2.2902168322119179e-02 0.0000000000000000e+00 0.0000000000000000e+00 0.0000000000000000e+00 0.0000000000000000e+00  1.1900245040936603e+00 -3.5786266570663271e-02 0.0000000000000000e+00 -3.5786266570663271e-02 2.2744310693264186e-02 0.0000000000000000e+00 0.0000000000000000e+00 0.0000000000000000e+00 0.0000000000000000e+00  1.1882016508926143e+00 -3.6920615941546803e-02 0.0000000000000000e+00 -3.6920615941546810e-02 2.2577072034375593e-02 0.0000000000000000e+00 0.0000000000000000e+00 0.0000000000000000e+00 0.0000000000000000e+00  1.1861904967315184e+00 -3.8142739309810395e-02 0.0000000000000000e+00 -3.8142739309810395e-02 2.2423821025363784e-02 0.0000000000000000e+00 0.0000000000000000e+00 0.0000000000000000e+00 0.0000000000000000e+00  1.1841140547545292e+00 -3.9308659334867782e-02 0.0000000000000000e+00 -3.9308659334867782e-02 2.2247720599479954e-02 0.0000000000000000e+00 0.0000000000000000e+00 0.0000000000000000e+00 0.0000000000000000e+00  1.1821321720601459e+00 -4.0388794421250103e-02 0.0000000000000000e+00 -4.0388794421250103e-02 2.2014361304697097e-02 0.0000000000000000e+00 0.0000000000000000e+00 0.0000000000000000e+00 0.0000000000000000e+00  1.1797808435504180e+00 -4.1577797706010770e-02 0.0000000000000000e+00 -4.1577797706010756e-02 2.1829767437011312e-02 0.0000000000000000e+00 0.0000000000000000e+00 0.0000000000000000e+00 0.0000000000000000e+00  1.1776159752641913e+00 -4.2635140956928781e-02 0.0000000000000000e+00 -4.2635140956928774e-02 2.1589087175125064e-02 0.0000000000000000e+00 0.0000000000000000e+00 0.0000000000000000e+00 0.0000000000000000e+00  1.1753958424333169e+00 -4.3846220236783452e-02 0.0000000000000000e+00 -4.3846220236783445e-02 2.1557131120726040e-02 0.0000000000000000e+00 0.0000000000000000e+00 0.0000000000000000e+00 0.0000000000000000e+00  1.1729872793814797e+00 -4.4897065137102593e-02 0.0000000000000000e+00 -4.4897065137102600e-02 2.1242246458461900e-02 0.0000000000000000e+00 0.0000000000000000e+00 0.0000000000000000e+00 0.0000000000000000e+00  1.1706677878787983e+00 -4.5943438648054072e-02 0.0000000000000000e+00 -4.5943438648054072e-02 2.1190402359623110e-02 0.0000000000000000e+00 0.0000000000000000e+00 0.0000000000000000e+00 0.0000000000000000e+00  1.1681494234810588e+00 -4.6912529433411544e-02 0.0000000000000000e+00 -4.6912529433411544e-02 2.1022899322990569e-02 0.0000000000000000e+00 0.0000000000000000e+00 0.0000000000000000e+00 0.0000000000000000e+00  1.1657769623715535e+00 -4.7955573684281889e-02 0.0000000000000000e+00 -4.7955573684281896e-02 2.0840315847480487e-02 0.0000000000000000e+00 0.0000000000000000e+00 0.0000000000000000e+00 0.0000000000000000e+00  1.1630173058232069e+00 -4.9051531238155199e-02 0.0000000000000000e+00 -4.9051531238155227e-02 2.0630996483383689e-02 0.0000000000000000e+00 0.0000000000000000e+00 0.0000000000000000e+00 0.0000000000000000e+00  1.1606613355406590e+00 -4.9978831968194061e-02 0.0000000000000000e+00 -4.9978831968194047e-02 2.0479694978918384e-02 0.0000000000000000e+00 0.0000000000000000e+00 0.0000000000000000e+00 0.0000000000000000e+00  1.1579690308314079e+00 -5.0964488794667945e-02 0.0000000000000000e+00 -5.0964488794667931e-02 2.0308106788047359e-02 0.0000000000000000e+00 0.0000000000000000e+00 0.0000000000000000e+00 0.0000000000000000e+00  1.1551879345495610e+00 -5.2022654606543109e-02 0.0000000000000000e+00 -5.2022654606543130e-02 2.0038519029387029e-02 0.0000000000000000e+00 0.0000000000000000e+00 0.0000000000000000e+00 0.0000000000000000e+00  1.1525224378415015e+00 -5.3046386086220330e-02 0.0000000000000000e+00 -5.3046386086220330e-02 1.9920585657235718e-02 0.0000000000000000e+00 0.0000000000000000e+00 0.0000000000000000e+00 0.0000000000000000e+00  1.1494715896969647e+00 -5.3999280835133667e-02 0.0000000000000000e+00 -5.3999280835133667e-02 1.9601250628815365e-02 0.0000000000000000e+00 0.0000000000000000e+00 0.0000000000000000e+00 0.0000000000000000e+00  1.1468061671798622e+00 -5.4880971202294085e-02 0.0000000000000000e+00 -5.4880971202294085e-02 1.9429373871654675e-02 0.0000000000000000e+00 0.0000000000000000e+00 0.0000000000000000e+00 0.0000000000000000e+00  1.1436296486044417e+00 -5.5862311831868287e-02 0.0000000000000000e+00 -5.5862311831868287e-02 1.9177571410172792e-02 0.0000000000000000e+00 0.0000000000000000e+00 0.0000000000000000e+00 0.0000000000000000e+00  1.1408296872001431e+00 -5.6707428246585957e-02 0.0000000000000000e+00 -5.6707428246585957e-02 1.8945429308517781e-02 0.0000000000000000e+00 0.0000000000000000e+00 0.0000000000000000e+00 0.0000000000000000e+00  1.1377335840191221e+00 -5.7586762972113605e-02 0.0000000000000000e+00 -5.7586762972113618e-02 1.8705097827192017e-02 0.0000000000000000e+00 0.0000000000000000e+00 0.0000000000000000e+00 0.0000000000000000e+00  1.1345994024643313e+00 -5.8457856895235409e-02 0.0000000000000000e+00 -5.8457856895235395e-02 1.8406581153673662e-02 0.0000000000000000e+00 0.0000000000000000e+00 0.0000000000000000e+00 0.0000000000000000e+00  1.1315678997341745e+00 -5.9270841259188238e-02 0.0000000000000000e+00 -5.9270841259188252e-02 1.8139291501537157e-02 0.0000000000000000e+00 0.0000000000000000e+00 0.0000000000000000e+00 0.0000000000000000e+00  1.1281820531214339e+00 -6.0101495416522169e-02 0.0000000000000000e+00 -6.0101495416522162e-02 1.7819966449238774e-02 0.0000000000000000e+00 0.0000000000000000e+00 0.0000000000000000e+00 0.0000000000000000e+00  1.1251033559595411e+00 -6.0843183607378414e-02 0.0000000000000000e+00 -6.0843183607378414e-02 1.7499362046955760e-02 0.0000000000000000e+00 0.0000000000000000e+00 0.0000000000000000e+00 0.0000000000000000e+00  1.1217890981687404e+00 -6.1669696225843507e-02 0.0000000000000000e+00 -6.1669696225843507e-02 1.7229378841679709e-02 0.0000000000000000e+00 0.0000000000000000e+00 0.0000000000000000e+00 0.0000000000000000e+00  1.1185263374298595e+00 -6.2370025799996301e-02 0.0000000000000000e+00 -6.2370025799996280e-02 1.6912508981859555e-02 0.0000000000000000e+00 0.0000000000000000e+00 0.0000000000000000e+00 0.0000000000000000e+00  1.1152756800350943e+00 -6.3125671332039779e-02 0.0000000000000000e+00 -6.3125671332039765e-02 1.6722982592236129e-02 0.0000000000000000e+00 0.0000000000000000e+00 0.0000000000000000e+00 0.0000000000000000e+00  1.1117140172191478e+00 -6.3758528674341661e-02 0.0000000000000000e+00 -6.3758528674341702e-02 1.6390068584884357e-02 0.0000000000000000e+00 0.0000000000000000e+00 0.0000000000000000e+00 0.0000000000000000e+00  1.1085569139657692e+00 -6.4389308390834732e-02 0.0000000000000000e+00 -6.4389308390834732e-02 1.6214072630352003e-02 0.0000000000000000e+00 0.0000000000000000e+00 0.0000000000000000e+00 0.0000000000000000e+00  1.1048498820502868e+00 -6.5077559831071427e-02 0.0000000000000000e+00 -6.5077559831071427e-02 1.5901887420502331e-02 0.0000000000000000e+00 0.0000000000000000e+00 0.0000000000000000e+00 0.0000000000000000e+00  1.1015649171730115e+00 -6.5759508660841084e-02 0.0000000000000000e+00 -6.5759508660841084e-02 1.5573946232195638e-02 0.0000000000000000e+00 0.0000000000000000e+00 0.0000000000000000e+00 0.0000000000000000e+00  1.0979068269648979e+00 -6.6471839559020959e-02 0.0000000000000000e+00 -6.6471839559020959e-02 1.5243539117535166e-02 0.0000000000000000e+00 0.0000000000000000e+00 0.0000000000000000e+00 0.0000000000000000e+00  1.0942875381021875e+00 -6.7072901574944610e-02 0.0000000000000000e+00 -6.7072901574944610e-02 1.4838709218931547e-02 0.0000000000000000e+00 0.0000000000000000e+00 0.0000000000000000e+00 0.0000000000000000e+00  1.0907615402673316e+00 -6.7671430444145128e-02 0.0000000000000000e+00 -6.7671430444145128e-02 1.4523349698815391e-02 0.0000000000000000e+00 0.0000000000000000e+00 0.0000000000000000e+00 0.0000000000000000e+00  1.0868502325660536e+00 -6.8252945147752611e-02 0.0000000000000000e+00 -6.8252945147752611e-02 1.4106470904842348e-02 0.0000000000000000e+00 0.0000000000000000e+00 0.0000000000000000e+00 0.0000000000000000e+00  1.0833848354369784e+00 -6.8720802845306142e-02 0.0000000000000000e+00 -6.8720802845306142e-02 1.3637273470723538e-02 0.0000000000000000e+00 0.0000000000000000e+00 0.0000000000000000e+00 0.0000000000000000e+00  1.0793326164302730e+00 -6.9218545806548057e-02 0.0000000000000000e+00 -6.9218545806548057e-02 1.3291355555439357e-02 0.0000000000000000e+00 0.0000000000000000e+00 0.0000000000000000e+00 0.0000000000000000e+00  1.0757932937672814e+00 -6.9647919689099017e-02 0.0000000000000000e+00 -6.9647919689099017e-02 1.2916752320305980e-02 0.0000000000000000e+00 0.0000000000000000e+00 0.0000000000000000e+00 0.0000000000000000e+00  1.0720427697875285e+00 -7.0162972109405919e-02 0.0000000000000000e+00 -7.0162972109405919e-02 1.2560955136054121e-02 0.0000000000000000e+00 0.0000000000000000e+00 0.0000000000000000e+00 0.0000000000000000e+00  1.0681731573667499e+00 -7.0483455757496094e-02 0.0000000000000000e+00 -7.0483455757496094e-02 1.2271444524799112e-02 0.0000000000000000e+00 0.0000000000000000e+00 0.0000000000000000e+00 0.0000000000000000e+00  1.0644232792166406e+00 -7.0781223288038445e-02 0.0000000000000000e+00 -7.0781223288038445e-02 1.1968442333754733e-02 0.0000000000000000e+00 0.0000000000000000e+00 0.0000000000000000e+00 0.0000000000000000e+00  1.0605007310621084e+00 -7.1300363546611414e-02 0.0000000000000000e+00 -7.1300363546611414e-02 1.1575334189779019e-02 0.0000000000000000e+00 0.0000000000000000e+00 0.0000000000000000e+00 0.0000000000000000e+00  1.0568038760673735e+00 -7.1594277076165072e-02 0.0000000000000000e+00 -7.1594277076165072e-02 1.1145716538983367e-02 0.0000000000000000e+00 0.0000000000000000e+00 0.0000000000000000e+00 0.0000000000000000e+00  1.0529121597428426e+00 -7.2059168852169189e-02 0.0000000000000000e+00 -7.2059168852169189e-02 1.0865290445811580e-02 0.0000000000000000e+00 0.0000000000000000e+00 0.0000000000000000e+00 0.0000000000000000e+00  1.0490706745928542e+00 -7.2500770193282021e-02 0.0000000000000000e+00 -7.2500770193282021e-02 1.0285796041064398e-02 0.0000000000000000e+00 0.0000000000000000e+00 0.0000000000000000e+00 0.0000000000000000e+00  1.0451749846387688e+00 -7.2833420329245724e-02 0.0000000000000000e+00 -7.2833420329245724e-02 9.8875860236541987e-03 0.0000000000000000e+00 0.0000000000000000e+00 0.0000000000000000e+00 0.0000000000000000e+00  1.0409200858746752e+00 -7.2990470948180869e-02 0.0000000000000000e+00 -7.2990470948180869e-02 9.4312019653488583e-03 0.0000000000000000e+00 0.0000000000000000e+00 0.0000000000000000e+00 0.0000000000000000e+00  1.0371341900506115e+00 -7.3181148801847021e-02 0.0000000000000000e+00 -7.3181148801847021e-02 8.9511969407333990e-03 0.0000000000000000e+00 0.0000000000000000e+00 0.0000000000000000e+00 0.0000000000000000e+00  1.0329171368494174e+00 -7.3368961981570197e-02 0.0000000000000000e+00 -7.3368961981570183e-02 8.4810949414955410e-03 0.0000000000000000e+00 0.0000000000000000e+00 0.0000000000000000e+00 0.0000000000000000e+00  1.0290217094206364e+00 -7.3597502241909488e-02 0.0000000000000000e+00 -7.3597502241909488e-02 8.0292234251376320e-03 0.0000000000000000e+00 0.0000000000000000e+00 0.0000000000000000e+00 0.0000000000000000e+00  1.0248663414052852e+00 -7.3750680089735857e-02 0.0000000000000000e+00 -7.3750680089735843e-02 7.5611439631033742e-03 0.0000000000000000e+00 0.0000000000000000e+00 0.0000000000000000e+00 0.0000000000000000e+00  1.0208235695468681e+00 -7.3878232262853491e-02 0.0000000000000000e+00 -7.3878232262853491e-02 7.0875697625472729e-03 0.0000000000000000e+00 0.0000000000000000e+00 0.0000000000000000e+00 0.0000000000000000e+00  1.0169252862506344e+00 -7.4005014894961141e-02 0.0000000000000000e+00 -7.4005014894961141e-02 6.6637780475932726e-03 0.0000000000000000e+00 0.0000000000000000e+00 0.0000000000000000e+00 0.0000000000000000e+00  1.0126513840995175e+00 -7.4089289982352119e-02 0.0000000000000000e+00 -7.4089289982352119e-02 6.1637889483999843e-03 0.0000000000000000e+00 0.0000000000000000e+00 0.0000000000000000e+00 0.0000000000000000e+00  1.0088483164868649e+00 -7.4151519350964895e-02 0.0000000000000000e+00 -7.4151519350964895e-02 5.7256742925661927e-03 0.0000000000000000e+00 0.0000000000000000e+00 0.0000000000000000e+00 0.0000000000000000e+00  1.0045352002236545e+00 -7.4174255572139497e-02 0.0000000000000000e+00 -7.4174255572139497e-02 5.2000636090217441e-03 0.0000000000000000e+00 0.0000000000000000e+00 0.0000000000000000e+00 0.0000000000000000e+00  1.0005787795050700e+00 -7.4197697424324971e-02 0.0000000000000000e+00 -7.4197697424324971e-02 4.7475667960317023e-03 0.0000000000000000e+00 0.0000000000000000e+00 0.0000000000000000e+00 0.0000000000000000e+00  9.9646130000529520e-01 -7.4184856546259392e-02 0.0000000000000000e+00 -7.4184856546259392e-02 4.2480069475271161e-03 0.0000000000000000e+00 0.0000000000000000e+00 0.0000000000000000e+00 0.0000000000000000e+00  9.9228529539869503e-01 -7.4150504949890714e-02 0.0000000000000000e+00 -7.4150504949890714e-02 3.7586944654416895e-03 0.0000000000000000e+00 0.0000000000000000e+00 0.0000000000000000e+00 0.0000000000000000e+00  9.8841862482689036e-01 -7.4111657655105675e-02 0.0000000000000000e+00 -7.4111657655105675e-02 3.2841966092138639e-03 0.0000000000000000e+00 0.0000000000000000e+00 0.0000000000000000e+00 0.0000000000000000e+00  9.8409166520513458e-01 -7.4010862183218840e-02 0.0000000000000000e+00 -7.4010862183218853e-02 2.7710814886148195e-03 0.0000000000000000e+00 0.0000000000000000e+00 0.0000000000000000e+00 0.0000000000000000e+00  9.8024253436405639e-01 -7.3906955765984425e-02 0.0000000000000000e+00 -7.3906955765984425e-02 2.3118994247966129e-03 0.0000000000000000e+00 0.0000000000000000e+00 0.0000000000000000e+00 0.0000000000000000e+00  9.7594236814514168e-01 -7.3785413617862172e-02 0.0000000000000000e+00 -7.3785413617862172e-02 1.8024580731524280e-03 0.0000000000000000e+0