<?xml version="1.0"?>
<VTKFile type="UnstructuredGrid"  version="0.1"  >
<UnstructuredGrid>
<Piece  NumberOfPoints="4266" NumberOfCells="6748">
<Points>
<DataArray  type="Float64"  NumberOfComponents="3"  format="ascii">0 0.01 0  10 0.01 0  0 1.012129576756052 0  10 1.012129576756052 0  0.007129524987038337 0.009997491741717768 0  0.01258064459049757 0.00999219056738478 0  0.01872173241756402 0.009982708334120727 0  0.02429919625640796 0.009970876572043954 0  0.03017238705920286 0.009955108531615313 0  0.03612352734296466 0.0099356743715591 0  0.04164979236492252 0.009914517792428084 0  0.04780928449023854 0.009887415768096998 0  0.05327287671237849 0.009860276931383746 0  0.0593436395885565 0.009826715421083503 0  0.06505608699933001 0.009791870631895848 0  0.07077243060783153 0.009753845329312128 0  0.07684085351634186 0.009710036052663748 0  0.08230528612367993 0.009667566921662384 0  0.08846525752759338 0.009616276826848907 0  0.09398926586603956 0.0095672187064786 0  0.09994377871281757 0.009511110804477986 0  0.10581288515308 0.009452550633355501 0  0.1113930001121819 0.009393893683773193 0  0.1175326299024069 0.009326020378011352 0  0.122983161250664 0.009262856809916281 0  0.1290978349347763 0.009188765415777931 0  0.1347300222736412 0.00911751981665075 0  0.1405327472005438 0.009041131768776852 0  0.1465421455697866 0.008958856277281909 0  0.1520341809431761 0.008880870879718691 0  0.1581991754706344 0.00879018143976357 0  0.1636834803794234 0.008706732874359017 0  0.1697073563005918 0.008612096527554045 0  0.1754901396361989 0.008518345936558386 0  0.1811391035120075 0.008424050210098115 0  0.1872444279222087 0.00831915423323064 0  0.1926961446341008 0.008222899998379215 0  0.198841090009393 0.008111516418624823 0  0.2044064770158165 0.008008028244452866 0  0.2102948627703611 0.007895869216798803 0  0.2162299794791283 0.007780085801116003 0  0.2217647046821167 0.007669675498109103 0  0.2279204403470532 0.007544154739747676 0  0.2333791472114919 0.007430485124751003 0  0.2394590817234977 0.0073013084386626 0  0.245152498789355 0.007177928079207972 0  0.2508861115607116 0.007051356111670669 0  0.2569419868439766 0.006915186417023598 0  0.2624099649457279 0.006790084113692359 0  0.2685711825796066 0.006646722567663751 0  0.274083748205357 0.006516341894728842 0  0.2800541704182985 0.00637292855786236 0  0.2859022845836161 0.006230279166502627 0  0.291495955429921 0.006091868246150131 0  0.2976275706217687 0.005937986548763313 0  0.3030757324287757 0.005799406374294222 0  0.3091980118239236 0.005641654227187252 0  0.3148109405089491 0.005495191514879527 0  0.3206341933715942 0.005341435282378838 0  0.3266248575896781 0.005181393525330103 0  0.3321252080346692 0.005032833254881577 0  0.3382880718234609 0.004864596209960478 0  0.3437628463580178 0.004713611578807419 0  0.3498021006600692 0.004545443593512952 0  0.3555594631656461 0.004383601001460968 0  0.3612291099056053 0.004222822711549606 0  0.3673210805066339 0.004048576418709386 0  0.3727746135437823 0.003891330909934085 0  0.3789246700786391 0.003712634483246944 0  0.3844721023230384 0.00355025746928806 0  0.3903845048135511 0.003376011435332509 0  0.3962935688476314 0.003200699755406988 0  0.4018430601204535 0.00303505085978487 0  0.4079921977692303 0.002850427660455144 0  0.4134449905916002 0.002685819499171436 0  0.4195385366679084 0.002500937932218923 0  0.425204482428441 0.002328206591247292 0  0.4309651825948974 0.00215183074136113 0  0.4370014133195289 0.001966263547608745 0  0.4424769325836848 0.00179732019881714 0  0.4486395183564056 0.001606544730410899 0  0.4541373275735043 0.001435838569361521 0  0.4601308451156257 0.001249254088784412 0  0.4659488863550298 0.001067707976620331 0  0.471564807260988 0.0008921302908496037 0  0.4776843759254726 0.0007004920228137959 0  0.4831317484445766 0.0005296836585198918 0  0.4892643513384632 0.0003372062279158936 0  0.4948528283485032 0.000161696161435303 0  0.5007056813361916 -2.216943068070812e-05 0  0.5066699093509902 -0.000209526046556915 0  0.5121845298566023 -0.0003826949545447442 0  0.5183439831944545 -0.0005759742926309219 0  0.5238088617282698 -0.0007472800272428554 0  0.5298681543527348 -0.0009369594486414562 0  0.5355929349139432 -0.001115856450691032 0  0.5412927239341832 -0.001293613669039852 0  0.5473668732672543 -0.001482588207084091 0  0.5528259073001393 -0.001651967505962102 0  0.5589819336317072 -0.001842386787779294 0  0.5645100189486582 -0.002012797049529044 0  0.5704524332663232 -0.002195301346534757 0  0.5763298911552834 -0.002375058665203144 0  0.5819006708717119 -0.002544689651648297 0  0.5880413281562127 -0.002730768313747055 0  0.5934904284812221 -0.002895042191696308 0  0.5995995320960693 -0.003078202338538874 0  0.605236779888003 -0.003246210954182579 0  0.6110299855290301 -0.003417806240976177 0  0.6170432999212266 -0.00359472323302265 0  0.6225307972792151 -0.00375505261922207 0  0.6286944373476531 -0.003933803567825084 0  0.6341794289295242 -0.004091634709336539 0  0.6401977648984302 -0.004263413669385436 0  0.6459846030577213 -0.004427148756161272 0  0.6516277670629291 -0.004585409549508515 0  0.6577342305863492 -0.004755038487876419 0  0.6631843111407589 -0.004904958327357115 0  0.6693271588517591 -0.005072208653571043 0  0.6748942591145469 -0.005222152905474348 0  0.6807781354428797 -0.005378892074409919 0  0.6867158102497221 -0.005535201343768038 0  0.6922478556369909 -0.005679100421160843 0  0.6984036264198542 -0.005837205328254034 0  0.7038624132928571 -0.005975584427524931 0  0.7099402809449575 -0.006127588021236129 0  0.7156361945945205 -0.006268012368771779 0  0.7213667017809595 -0.006407263887957157 0  0.7274241898103784 -0.006552202568912044 0  0.7328913375361901 -0.006680980644346233 0  0.7390522654079078 -0.006823736587757829 0  0.7445663161830813 -0.006949337256267011 0  0.7505345306161221 -0.007082931996795786 0  0.7563856967966242 -0.007211490056377221 0  0.7619775509571868 -0.007332073958440476 0  0.7681106054434813 -0.007461725199742056 0  0.7735594228940573 -0.007574589702563127 0  0.7796809699364847 -0.007698739982391196 0  0.7852974086111042 -0.007810142587226769 0  0.7911178568436495 -0.007923025648348906 0  0.797112403703894 -0.008036515862006795 0  0.8026119630288198 -0.008138129173272899 0  0.8087760180262171 -0.008249131188213875 0  0.814253500572072 -0.008345174877796967 0  0.8202905515677629 -0.008448166667805387 0  0.8260544286221699 -0.008543663134562481 0  0.831720415905675 -0.008634807324656511 0  0.8378167080097026 -0.008729817306667463 0  0.8432709709919499 -0.008812108559864256 0  0.8494209576248264 -0.008901791974276371 0  0.8549745826348545 -0.008979924427376591 0  0.8608814329347291 -0.009060026011188804 0  0.8667998142885592 -0.009137155111096256 0  0.8723460990452367 -0.009206568509458774 0  0.8784989383774584 -0.009280301817794542 0  0.8839552890388401 -0.009342788637451834 0  0.8900456692707091 -0.009409293585850673 0  0.8957233874467343 -0.009468190513990782 0  0.9014754209053449 -0.009524786393944277 0  0.9075213579987256 -0.009580921173179099 0  0.9129954731058688 -0.009628765913494807 0  0.9191593188847452 -0.009679229788646495 0  0.9246655330424429 -0.009721240864333262 0  0.9306503084472221 -0.009763603884533442 0  0.9364847200361547 -0.009801580348484516 0  0.9420914259676206 -0.009834972127394636 0  0.948219177636862 -0.009867976960504428 0  0.9536688877131657 -0.009894257783109666 0  0.9597979104438458 -0.009920349306153329 0  0.9654020314719589 -0.009940987600901847 0  0.9712398170272581 -0.009959209624459757 0  0.9772219132298864 -0.009974407121723252 0  0.9827297975109929 -0.009985285083248089 0  0.9888934840407251 -0.009993913310034224 0  0.9943667421923366 -0.009998434045983932 0  1.000414962337846 -0.009999991502249178 0  1.00616395254491 -0.009998125110441144 0  1.011844857354635 -0.009993077234903055 0  1.017933801412069 -0.009984132829796667 0  1.023390946643176 -0.00997301205183276 0  1.029544679732296 -0.009956955598792184 0  1.035089558108845 -0.009939300412459717 0  1.041010936359372 -0.009917116481575694 0  1.04691554237944 -0.00989157814857561 0  1.052471258615448 -0.009864440751261633 0  1.05862104751389 -0.009830897850136421 0  1.064075481579663 -0.009798076706746352 0  1.070173358231585 -0.009757978136698224 0  1.075837941143087 -0.00971752009646258 0  1.081604377355612 -0.009673173917302162 0  1.087640686528322 -0.009623351755525641 0  1.093119387704205 -0.009575135453199036 0  1.099284093826516 -0.009517491101966447 0  1.104783734376909 -0.009463052176492596 0  1.110779897618174 -0.009400480030121557 0  1.116599992234411 -0.00933655469875222 0  1.122217899723542 -0.009271889359757672 0  1.128339818747432 -0.009198135031144493 0  1.133789446190431 -0.00912961705214143 0  1.139923317158062 -0.009049295973540348 0  1.145515844317945 -0.008973134373133167 0  1.151367773813766 -0.008890475161473248 0  1.157336906671575 -0.008803064948780913 0  1.16285160438384 -0.008719557366803981 0  1.16901331600552 -0.008623157866544266 0  1.174481522907442 -0.00853490108265173 0  1.180539122189597 -0.008434191931863186 0  1.186271617394136 -0.008336073959344166 0  1.191966996821913 -0.008235914041393521 0  1.198046448076202 -0.008126091334838595 0  1.203505695906331 -0.008024945109277802 0  1.209661806077474 -0.007908057515838151 0  1.21519584913737 -0.007800455577732041 0  1.221132109188887 -0.00768241304184519 0  1.227019087412133 -0.007562711583992629 0  1.232585135446325 -0.007447155722966398 0  1.238729389023077 -0.007316953404904543 0  1.244180486899644 -0.007199156086382225 0  1.250286093435722 -0.007064709646262071 0  1.255932842016573 -0.006938052500145445 0  1.261716857103797 -0.006806053534187844 0  1.26773845151126 -0.006666245775332091 0  1.273222687278595 -0.006536836953056475 0  1.279386853652711 -0.00638906998029936 0  1.284876650734994 -0.006255450389977176 0  1.290887326898431 -0.00610702037198264 0  1.296685536664392 -0.00596177282270944 0  1.30231949087952 -0.005818744638503708 0  1.308431215520824
[...]
<PointData  Tensors="Total Stress"> 
<DataArray  type="Float64"  Name="Total Stress"  NumberOfComponents="9" format="ascii">1.2297172059840158e+00 2.1426118128937070e-05 0.0000000000000000e+00 2.1426118128937074e-05 3.8321517611610074e-02 0.0000000000000000e+00 0.0000000000000000e+00 0.0000000000000000e+00 0.0000000000000000e+00  1.2297172059840158e+00 2.1426118128937070e-05 0.0000000000000000e+00 2.1426118128937074e-05 3.8321517611610074e-02 0.0000000000000000e+00 0.0000000000000000e+00 0.0000000000000000e+00 0.0000000000000000e+00  8.6863927596236079e-01 4.6023391607005032e-05 0.0000000000000000e+00 4.6023391607005032e-05 -3.3364515570554316e-03 0.0000000000000000e+00 0.0000000000000000e+00 0.0000000000000000e+00 0.0000000000000000e+00  8.6863927596236079e-01 4.6023391607005032e-05 0.0000000000000000e+00 4.6023391607005032e-05 -3.3364515570554316e-03 0.0000000000000000e+00 0.0000000000000000e+00 0.0000000000000000e+00 0.0000000000000000e+00  1.2296445402343625e+00 -1.8992227142270157e-03 0.0000000000000000e+00 -1.8992227142270157e-03 3.8065708473863202e-02 0.0000000000000000e+00 0.0000000000000000e+00 0.0000000000000000e+00 0.0000000000000000e+00  1.2295185320987507e+00 -3.3647213788930612e-03 0.0000000000000000e+00 -3.3647213788930612e-03 3.8150041178894291e-02 0.0000000000000000e+00 0.0000000000000000e+00 0.0000000000000000e+00 0.0000000000000000e+00  1.2294213317593070e+00 -4.9443181221955259e-03 0.0000000000000000e+00 -4.9443181221955259e-03 3.8245129572872058e-02 0.0000000000000000e+00 0.0000000000000000e+00 0.0000000000000000e+00 0.0000000000000000e+00  1.2290620189969208e+00 -6.4291331399759536e-03 0.0000000000000000e+00 -6.4291331399759536e-03 3.8035064169693621e-02 0.0000000000000000e+00 0.0000000000000000e+00 0.0000000000000000e+00 0.0000000000000000e+00  1.2286692998614090e+00 -8.0163525423581038e-03 0.0000000000000000e+00 -8.0163525423581038e-03 3.8159179126012653e-02 0.0000000000000000e+00 0.0000000000000000e+00 0.0000000000000000e+00 0.0000000000000000e+00  1.2282295573941502e+00 -9.5849210357822935e-03 0.0000000000000000e+00 -9.5849210357822935e-03 3.7978746598238453e-02 0.0000000000000000e+00 0.0000000000000000e+00 0.0000000000000000e+00 0.0000000000000000e+00  1.2277574836925638e+00 -1.1051151247639985e-02 0.0000000000000000e+00 -1.1051151247639985e-02 3.7999736225845876e-02 0.0000000000000000e+00 0.0000000000000000e+00 0.0000000000000000e+00 0.0000000000000000e+00  1.2271122585190621e+00 -1.2700084714138344e-02 0.0000000000000000e+00 -1.2700084714138344e-02 3.7871550826228187e-02 0.0000000000000000e+00 0.0000000000000000e+00 0.0000000000000000e+00 0.0000000000000000e+00  1.2264864293941333e+00 -1.4146666346503836e-02 0.0000000000000000e+00 -1.4146666346503836e-02 3.7768330633985041e-02 0.0000000000000000e+00 0.0000000000000000e+00 0.0000000000000000e+00 0.0000000000000000e+00  1.2256850352405395e+00 -1.5724474032661168e-02 0.0000000000000000e+00 -1.5724474032661168e-02 3.7635160345057518e-02 0.0000000000000000e+00 0.0000000000000000e+00 0.0000000000000000e+00 0.0000000000000000e+00  1.2248404844440290e+00 -1.7225022346028757e-02 0.0000000000000000e+00 -1.7225022346028757e-02 3.7500317059563373e-02 0.0000000000000000e+00 0.0000000000000000e+00 0.0000000000000000e+00 0.0000000000000000e+00  1.2239550232351519e+00 -1.8656978504521783e-02 0.0000000000000000e+00 -1.8656978504521783e-02 3.7356345458076486e-02 0.0000000000000000e+00 0.0000000000000000e+00 0.0000000000000000e+00 0.0000000000000000e+00  1.2229478910887737e+00 -2.0193925822394029e-02 0.0000000000000000e+00 -2.0193925822394029e-02 3.7281618611334014e-02 0.0000000000000000e+00 0.0000000000000000e+00 0.0000000000000000e+00 0.0000000000000000e+00  1.2217952790847313e+00 -2.1633216156308897e-02 0.0000000000000000e+00 -2.1633216156308897e-02 3.6981655108756603e-02 0.0000000000000000e+00 0.0000000000000000e+00 0.0000000000000000e+00 0.0000000000000000e+00  1.2208272130496909e+00 -2.3128269612776028e-02 0.0000000000000000e+00 -2.3128269612776028e-02 3.7022919911455218e-02 0.0000000000000000e+00 0.0000000000000000e+00 0.0000000000000000e+00 0.0000000000000000e+00  1.2194825578779518e+00 -2.4553733441391820e-02 0.0000000000000000e+00 -2.4553733441391820e-02 3.6688091913501072e-02 0.0000000000000000e+00 0.0000000000000000e+00 0.0000000000000000e+00 0.0000000000000000e+00  1.2184347997162643e+00 -2.5969163006300630e-02 0.0000000000000000e+00 -2.5969163006300630e-02 3.6711758649116466e-02 0.0000000000000000e+00 0.0000000000000000e+00 0.0000000000000000e+00 0.0000000000000000e+00  1.2169377005477693e+00 -2.7435243202506697e-02 0.0000000000000000e+00 -2.7435243202506697e-02 3.6456283254861367e-02 0.0000000000000000e+00 0.0000000000000000e+00 0.0000000000000000e+00 0.0000000000000000e+00  1.2157642623744516e+00 -2.8810264145175540e-02 0.0000000000000000e+00 -2.8810264145175540e-02 3.6474320787605291e-02 0.0000000000000000e+00 0.0000000000000000e+00 0.0000000000000000e+00 0.0000000000000000e+00  1.2141769307952486e+00 -3.0385746278557342e-02 0.0000000000000000e+00 -3.0385746278557342e-02 3.6278317220675267e-02 0.0000000000000000e+00 0.0000000000000000e+00 0.0000000000000000e+00 0.0000000000000000e+00  1.2126267111893632e+00 -3.1773499672729071e-02 0.0000000000000000e+00 -3.1773499672729071e-02 3.5964263115317183e-02 0.0000000000000000e+00 0.0000000000000000e+00 0.0000000000000000e+00 0.0000000000000000e+00  1.2109337846997359e+00 -3.3337475336728983e-02 0.0000000000000000e+00 -3.3337475336728983e-02 3.5913858812546787e-02 0.0000000000000000e+00 0.0000000000000000e+00 0.0000000000000000e+00 0.0000000000000000e+00  1.2092844479345408e+00 -3.4693808844968657e-02 0.0000000000000000e+00 -3.4693808844968657e-02 3.5508386291402433e-02 0.0000000000000000e+00 0.0000000000000000e+00 0.0000000000000000e+00 0.0000000000000000e+00  1.2074699908281554e+00 -3.5960426639998211e-02 0.0000000000000000e+00 -3.5960426639998211e-02 3.5154474680500834e-02 0.0000000000000000e+00 0.0000000000000000e+00 0.0000000000000000e+00 0.0000000000000000e+00  1.2054113393849233e+00 -3.7480162672225037e-02 0.0000000000000000e+00 -3.7480162672225037e-02 3.5050899420097710e-02 0.0000000000000000e+00 0.0000000000000000e+00 0.0000000000000000e+00 0.0000000000000000e+00  1.2036690744463943e+00 -3.8753352705468251e-02 0.0000000000000000e+00 -3.8753352705468251e-02 3.4870499613904468e-02 0.0000000000000000e+00 0.0000000000000000e+00 0.0000000000000000e+00 0.0000000000000000e+00  1.2016128144638021e+00 -4.0174952113913150e-02 0.0000000000000000e+00 -4.0174952113913150e-02 3.4588639520164194e-02 0.0000000000000000e+00 0.0000000000000000e+00 0.0000000000000000e+00 0.0000000000000000e+00  1.1995971669863972e+00 -4.1420225522487295e-02 0.0000000000000000e+00 -4.1420225522487295e-02 3.4251174987625678e-02 0.0000000000000000e+00 0.0000000000000000e+00 0.0000000000000000e+00 0.0000000000000000e+00  1.1975407848007271e+00 -4.2741848460684635e-02 0.0000000000000000e+00 -4.2741848460684635e-02 3.4074109504612191e-02 0.0000000000000000e+00 0.0000000000000000e+00 0.0000000000000000e+00 0.0000000000000000e+00  1.1953477344617183e+00 -4.4020094533211547e-02 0.0000000000000000e+00 -4.4020094533211547e-02 3.3784776442475829e-02 0.0000000000000000e+00 0.0000000000000000e+00 0.0000000000000000e+00 0.0000000000000000e+00  1.1931916367448498e+00 -4.5250310177561058e-02 0.0000000000000000e+00 -4.5250310177561058e-02 3.3586376865988414e-02 0.0000000000000000e+00 0.0000000000000000e+00 0.0000000000000000e+00 0.0000000000000000e+00  1.1908315109097194e+00 -4.6608931436866209e-02 0.0000000000000000e+00 -4.6608931436866209e-02 3.3320835281652722e-02 0.0000000000000000e+00 0.0000000000000000e+00 0.0000000000000000e+00 0.0000000000000000e+00  1.1886328217404944e+00 -4.7857890456015802e-02 0.0000000000000000e+00 -4.7857890456015802e-02 3.3112337949834120e-02 0.0000000000000000e+00 0.0000000000000000e+00 0.0000000000000000e+00 0.0000000000000000e+00  1.1861169151205488e+00 -4.9172597618625823e-02 0.0000000000000000e+00 -4.9172597618625823e-02 3.2742013949200906e-02 0.0000000000000000e+00 0.0000000000000000e+00 0.0000000000000000e+00 0.0000000000000000e+00  1.1836187619760463e+00 -5.0354711397649167e-02 0.0000000000000000e+00 -5.0354711397649167e-02 3.2523266142966648e-02 0.0000000000000000e+00 0.0000000000000000e+00 0.0000000000000000e+00 0.0000000000000000e+00  1.1810381181375049e+00 -5.1581177869614886e-02 0.0000000000000000e+00 -5.1581177869614886e-02 3.2130269510115592e-02 0.0000000000000000e+00 0.0000000000000000e+00 0.0000000000000000e+00 0.0000000000000000e+00  1.1784152128445440e+00 -5.2854099981052428e-02 0.0000000000000000e+00 -5.2854099981052428e-02 3.1756445841437615e-02 0.0000000000000000e+00 0.0000000000000000e+00 0.0000000000000000e+00 0.0000000000000000e+00  1.1758696220140590e+00 -5.3997720574360961e-02 0.0000000000000000e+00 -5.3997720574360961e-02 3.1428427267850646e-02 0.0000000000000000e+00 0.0000000000000000e+00 0.0000000000000000e+00 0.0000000000000000e+00  1.1729864754210451e+00 -5.5242964176773095e-02 0.0000000000000000e+00 -5.5242964176773095e-02 3.1040934888317353e-02 0.0000000000000000e+00 0.0000000000000000e+00 0.0000000000000000e+00 0.0000000000000000e+00  1.1703614695015725e+00 -5.6381843508721968e-02 0.0000000000000000e+00 -5.6381843508721968e-02 3.0742486496017688e-02 0.0000000000000000e+00 0.0000000000000000e+00 0.0000000000000000e+00 0.0000000000000000e+00  1.1674228547622814e+00 -5.7443873467849217e-02 0.0000000000000000e+00 -5.7443873467849217e-02 3.0377272193847067e-02 0.0000000000000000e+00 0.0000000000000000e+00 0.0000000000000000e+00 0.0000000000000000e+00  1.1645974593646315e+00 -5.8505487151617665e-02 0.0000000000000000e+00 -5.8505487151617665e-02 3.0024406057663395e-02 0.0000000000000000e+00 0.0000000000000000e+00 0.0000000000000000e+00 0.0000000000000000e+00  1.1616545475794688e+00 -5.9636039829661112e-02 0.0000000000000000e+00 -5.9636039829661112e-02 2.9650704867428827e-02 0.0000000000000000e+00 0.0000000000000000e+00 0.0000000000000000e+00 0.0000000000000000e+00  1.1584881354497338e+00 -6.0753673501020108e-02 0.0000000000000000e+00 -6.0753673501020108e-02 2.9242949538881978e-02 0.0000000000000000e+00 0.0000000000000000e+00 0.0000000000000000e+00 0.0000000000000000e+00  1.1555173131191925e+00 -6.1721662653282626e-02 0.0000000000000000e+00 -6.1721662653282626e-02 2.8771881606991755e-02 0.0000000000000000e+00 0.0000000000000000e+00 0.0000000000000000e+00 0.0000000000000000e+00  1.1523240834317514e+00 -6.2811170427887975e-02 0.0000000000000000e+00 -6.2811170427887975e-02 2.8455977412802178e-02 0.0000000000000000e+00 0.0000000000000000e+00 0.0000000000000000e+00 0.0000000000000000e+00  1.1491301247779544e+00 -6.3812197250723846e-02 0.0000000000000000e+00 -6.3812197250723846e-02 2.7891364766418840e-02 0.0000000000000000e+00 0.0000000000000000e+00 0.0000000000000000e+00 0.0000000000000000e+00  1.1459413324579133e+00 -6.4881927002454945e-02 0.0000000000000000e+00 -6.4881927002454945e-02 2.7551583721639326e-02 0.0000000000000000e+00 0.0000000000000000e+00 0.0000000000000000e+00 0.0000000000000000e+00  1.1425020966382096e+00 -6.5805752477165538e-02 0.0000000000000000e+00 -6.5805752477165538e-02 2.7010119462483422e-02 0.0000000000000000e+00 0.0000000000000000e+00 0.0000000000000000e+00 0.0000000000000000e+00  1.1394294059250978e+00 -6.6728165521581076e-02 0.0000000000000000e+00 -6.6728165521581076e-02 2.6706066692176050e-02 0.0000000000000000e+00 0.0000000000000000e+00 0.0000000000000000e+00 0.0000000000000000e+00  1.1357536540473341e+00 -6.7702423723942501e-02 0.0000000000000000e+00 -6.7702423723942501e-02 2.6124684996437417e-02 0.0000000000000000e+00 0.0000000000000000e+00 0.0000000000000000e+00 0.0000000000000000e+00  1.1324431222385059e+00 -6.8576938310088334e-02 0.0000000000000000e+00 -6.8576938310088334e-02 2.5612984693794083e-02 0.0000000000000000e+00 0.0000000000000000e+00 0.0000000000000000e+00 0.0000000000000000e+00  1.1287040487062359e+00 -6.9454325319361063e-02 0.0000000000000000e+00 -6.9454325319361063e-02 2.5029687837467680e-02 0.0000000000000000e+00 0.0000000000000000e+00 0.0000000000000000e+00 0.0000000000000000e+00  1.1252161677182233e+00 -7.0315784812069779e-02 0.0000000000000000e+00 -7.0315784812069779e-02 2.4482423055340867e-02 0.0000000000000000e+00 0.0000000000000000e+00 0.0000000000000000e+00 0.0000000000000000e+00  1.1215570863732756e+00 -7.1088852176763695e-02 0.0000000000000000e+00 -7.1088852176763695e-02 2.3908387117956037e-02 0.0000000000000000e+00 0.0000000000000000e+00 0.0000000000000000e+00 0.0000000000000000e+00  1.1177751043925228e+00 -7.1880358529001653e-02 0.0000000000000000e+00 -7.1880358529001653e-02 2.3326665484823275e-02 0.0000000000000000e+00 0.0000000000000000e+00 0.0000000000000000e+00 0.0000000000000000e+00  1.1142469196204605e+00 -7.2632665152113404e-02 0.0000000000000000e+00 -7.2632665152113404e-02 2.2811843613737594e-02 0.0000000000000000e+00 0.0000000000000000e+00 0.0000000000000000e+00 0.0000000000000000e+00  1.1103619758958929e+00 -7.3360445756123424e-02 0.0000000000000000e+00 -7.3360445756123424e-02 2.2231996976228290e-02 0.0000000000000000e+00 0.0000000000000000e+00 0.0000000000000000e+00 0.0000000000000000e+00  1.1067506710438821e+00 -7.4049687051657181e-02 0.0000000000000000e+00 -7.4049687051657181e-02 2.1581823271156195e-02 0.0000000000000000e+00 0.0000000000000000e+00 0.0000000000000000e+00 0.0000000000000000e+00  1.1029958971096425e+00 -7.4603886930158209e-02 0.0000000000000000e+00 -7.4603886930158209e-02 2.1095224918328600e-02 0.0000000000000000e+00 0.0000000000000000e+00 0.0000000000000000e+00 0.0000000000000000e+00  1.0990269213824986e+00 -7.5194674411940110e-02 0.0000000000000000e+00 -7.5194674411940110e-02 2.0384347535446611e-02 0.0000000000000000e+00 0.0000000000000000e+00 0.0000000000000000e+00 0.0000000000000000e+00  1.0954448025187751e+00 -7.5689158769783035e-02 0.0000000000000000e+00 -7.5689158769783035e-02 1.9902795479680584e-02 0.0000000000000000e+00 0.0000000000000000e+00 0.0000000000000000e+00 0.0000000000000000e+00  1.0912385991237554e+00 -7.6409803806148160e-02 0.0000000000000000e+00 -7.6409803806148160e-02 1.9249683206176402e-02 0.0000000000000000e+00 0.0000000000000000e+00 0.0000000000000000e+00 0.0000000000000000e+00  1.0874135576051935e+00 -7.7028150330750444e-02 0.0000000000000000e+00 -7.7028150330750444e-02 1.8651052049951190e-02 0.0000000000000000e+00 0.0000000000000000e+00 0.0000000000000000e+00 0.0000000000000000e+00  1.0836022674640451e+00 -7.7310673385023856e-02 0.0000000000000000e+00 -7.7310673385023843e-02 1.8180378756900529e-02 0.0000000000000000e+00 0.0000000000000000e+00 0.0000000000000000e+00 0.0000000000000000e+00  1.0798782922404055e+00 -7.7736538450217094e-02 0.0000000000000000e+00 -7.7736538450217108e-02 1.7701260569237875e-02 0.0000000000000000e+00 0.0000000000000000e+00 0.0000000000000000e+00 0.0000000000000000e+00  1.0757890065364033e+00 -7.8436499626806322e-02 0.0000000000000000e+00 -7.8436499626806322e-02 1.7187462872656756e-02 0.0000000000000000e+00 0.0000000000000000e+00 0.0000000000000000e+00 0.0000000000000000e+00  1.0717899611468453e+00 -7.8877485168282177e-02 0.0000000000000000e+00 -7.8877485168282191e-02 1.6732157168838961e-02 0.0000000000000000e+00 0.0000000000000000e+00 0.0000000000000000e+00 0.0000000000000000e+00  1.0678519002845333e+00 -7.9445355079840338e-02 0.0000000000000000e+00 -7.9445355079840338e-02 1.6130113326461071e-02 0.0000000000000000e+00 0.0000000000000000e+00 0.0000000000000000e+00 0.0000000000000000e+00  1.0634708895518916e+00 -8.0060035870416574e-02 0.0000000000000000e+00 -8.0060035870416574e-02 1.5547598790682817e-02 0.0000000000000000e+00 0.0000000000000000e+00 0.0000000000000000e+00 0.0000000000000000e+00  1.0597099929516542e+00 -8.0399342683052127e-02 0.0000000000000000e+00 -8.0399342683052127e-02 1.4939961277193416e-02 0.0000000000000000e+00 0.0000000000000000e+00 0.0000000000000000e+00 0.0000000000000000e+00  1.0552772789969573e+00 -8.0851543592314307e-02 0.0000000000000000e+00 -8.0851543592314307e-02 1.4339919030871713e-02 0.0000000000000000e+00 0.0000000000000000e+00 0.0000000000000000e+00 0.0000000000000000e+00  1.0509915539359669e+00 -8.1287434201175165e-02 0.0000000000000000e+00 -8.1287434201175165e-02 1.3630036805422366e-02 0.0000000000000000e+00 0.0000000000000000e+00 0.0000000000000000e+00 0.0000000000000000e+00  1.0469554700730761e+00 -8.1550425197920925e-02 0.0000000000000000e+00 -8.1550425197920925e-02 1.3032311983249693e-02 0.0000000000000000e+00 0.0000000000000000e+00 0.0000000000000000e+00 0.0000000000000000e+00  1.0425363134292494e+00 -8.1851093757648513e-02 0.0000000000000000e+00 -8.1851093757648513e-02 1.2246873671072640e-02 0.0000000000000000e+00 0.0000000000000000e+00 0.0000000000000000e+00 0.0000000000000000e+00  1.0386351398409108e+00 -8.2072863495278398e-02 0.0000000000000000e+00 -8.2072863495278398e-02 1.1592758811940516e-02 0.0000000000000000e+00 0.0000000000000000e+00 0.0000000000000000e+00 0.0000000000000000e+00  1.0340996402030276e+00 -8.2329765453090717e-02 0.0000000000000000e+00 -8.2329765453090717e-02 1.0893018154954855e-02 0.0000000000000000e+00 0.0000000000000000e+00 0.0000000000000000e+00 0.0000000000000000e+00  1.0300876277879285e+00 -8.2505342270082160e-02 0.0000000000000000e+00 -8.2505342270082160e-02 1.0210244061262291e-02 0.0000000000000000e+00 0.0000000000000000e+00 0.0000000000000000e+00 0.0000000000000000e+00  1.0256605429932131e+00 -8.2733917696272974e-02 0.0000000000000000e+00 -8.2733917696272974e-02 9.5172907681599153e-03 0.0000000000000000e+00 0.0000000000000000e+00 0.0000000000000000e+00 0.0000000000000000e+00  1.0213530956597985e+00 -8.2874903165849098e-02 0.0000000000000000e+00 -8.2874903165849098e-02 8.8026443292826117e-03 0.0000000000000000e+00 0.0000000000000000e+00 0.0000000000000000e+00 0.0000000000000000e+00  1.0171900358956982e+00 -8.3039349854321820e-02 0.0000000000000000e+00 -8.3039349854321820e-02 8.0925223134723466e-03 0.0000000000000000e+00 0.0000000000000000e+00 0.0000000000000000e+00 0.0000000000000000e+00  1.0127033319886272e+00 -8.3132321841789800e-02 0.0000000000000000e+00 -8.3132321841789800e-02 7.3720741701336157e-03 0.0000000000000000e+00 0.0000000000000000e+00 0.0000000000000000e+00 0.0000000000000000e+00  1.0086847772854481e+00 -8.3246033077888429e-02 0.0000000000000000e+00 -8.3246033077888429e-02 6.6946545055196378e-03 0.0000000000000000e+00 0.0000000000000000e+00 0.0000000000000000e+00 0.0000000000000000e+00  1.0041322424014887e+00 -8.3175190731250043e-02 0.0000000000000000e+00 -8.3175190731250043e-02 5.9290000014719469e-03 0.0000000000000000e+00 0.0000000000000000e+00 0.0000000000000000e+00 0.0000000000000000e+00  9.9995969304153232e-01 -8.3186259614405997e-02 0.0000000000000000e+00 -8.3186259614405997e-02 5.2562152606603603e-03 0.0000000000000000e+00 0.0000000000000000e+00 0.0000000000000000e+00 0.0000000000000000e+00  9.9559208635495866e-01 -8.3167424456754693e-02 0.0000000000000000e+00 -8.3167424456754693e-02 4.5321059248222958e-03 0.0000000000000000e+00 0.0000000000000000e+00 0.0000000000000000e+00 0.0000000000000000e+00  9.9117452414193807e-01 -8.3124751800717531e-02 0.0000000000000000e+00 -8.3124751800717531e-02 3.7905657996809834e-03 0.0000000000000000e+00 0.0000000000000000e+00 0.0000000000000000e+00 0.0000000000000000e+00  9.8708055972370401e-01 -8.3096190702683856e-02 0.0000000000000000e+00 -8.3096190702683856e-02 3.0845671932972821e-03 0.0000000000000000e+00 0.0000000000000000e+00 0.0000000000000000e+00 0.0000000000000000e+00  9.8249654354861571e-01 -8.2935400974634574e-02 0.0000000000000000e+00 -8.2935400974634574e-02 2.3096045259260629e-03 0.0000000000000000e+00 0.0000000000000000e+00 0.0000000000000000e+00 0.0000000000000000e+00  9.7842399045458739e-01 -8.2774716579423133e-02 0.0000000000000000e+00 -8.2774716579423133e-02 1.6145890835157790e-03 0.0000000000000000e+00 0.0000000000000000e+00 0.0000000000000000e+00 0.0000000000000000e+00  9.7393745168632395e-01 -8.2668874696935957e-02 0.0000000000000000e+00 -8.2668874696935957e-02 8.9012524077210892e-04 0.0000000000000000e+00 0.