<?xml version="1.0"?>
<VTKFile type="UnstructuredGrid"  version="0.1"  >
<UnstructuredGrid>
<Piece  NumberOfPoints="4252" NumberOfCells="6720">
<Points>
<DataArray  type="Float64"  NumberOfComponents="3"  format="ascii">0 0.01 0  10 0.01 0  0 1.027175258281704 0  10 1.027175258281704 0  0.007129524987038337 0.009997491741717768 0  0.01258064459049757 0.00999219056738478 0  0.01872173241756402 0.009982708334120727 0  0.02429919625640796 0.009970876572043954 0  0.03017238705920286 0.009955108531615313 0  0.03612352734296466 0.0099356743715591 0  0.04164979236492252 0.009914517792428084 0  0.04780928449023854 0.009887415768096998 0  0.05327287671237849 0.009860276931383746 0  0.0593436395885565 0.009826715421083503 0  0.06505608699933001 0.009791870631895848 0  0.07077243060783153 0.009753845329312128 0  0.07684085351634186 0.009710036052663748 0  0.08230528612367993 0.009667566921662384 0  0.08846525752759338 0.009616276826848907 0  0.09398926586603956 0.0095672187064786 0  0.09994377871281757 0.009511110804477986 0  0.10581288515308 0.009452550633355501 0  0.1113930001121819 0.009393893683773193 0  0.1175326299024069 0.009326020378011352 0  0.122983161250664 0.009262856809916281 0  0.1290978349347763 0.009188765415777931 0  0.1347300222736412 0.00911751981665075 0  0.1405327472005438 0.009041131768776852 0  0.1465421455697866 0.008958856277281909 0  0.1520341809431761 0.008880870879718691 0  0.1581991754706344 0.00879018143976357 0  0.1636834803794234 0.008706732874359017 0  0.1697073563005918 0.008612096527554045 0  0.1754901396361989 0.008518345936558386 0  0.1811391035120075 0.008424050210098115 0  0.1872444279222087 0.00831915423323064 0  0.1926961446341008 0.008222899998379215 0  0.198841090009393 0.008111516418624823 0  0.2044064770158165 0.008008028244452866 0  0.2102948627703611 0.007895869216798803 0  0.2162299794791283 0.007780085801116003 0  0.2217647046821167 0.007669675498109103 0  0.2279204403470532 0.007544154739747676 0  0.2333791472114919 0.007430485124751003 0  0.2394590817234977 0.0073013084386626 0  0.245152498789355 0.007177928079207972 0  0.2508861115607116 0.007051356111670669 0  0.2569419868439766 0.006915186417023598 0  0.2624099649457279 0.006790084113692359 0  0.2685711825796066 0.006646722567663751 0  0.274083748205357 0.006516341894728842 0  0.2800541704182985 0.00637292855786236 0  0.2859022845836161 0.006230279166502627 0  0.291495955429921 0.006091868246150131 0  0.2976275706217687 0.005937986548763313 0  0.3030757324287757 0.005799406374294222 0  0.3091980118239236 0.005641654227187252 0  0.3148109405089491 0.005495191514879527 0  0.3206341933715942 0.005341435282378838 0  0.3266248575896781 0.005181393525330103 0  0.3321252080346692 0.005032833254881577 0  0.3382880718234609 0.004864596209960478 0  0.3437628463580178 0.004713611578807419 0  0.3498021006600692 0.004545443593512952 0  0.3555594631656461 0.004383601001460968 0  0.3612291099056053 0.004222822711549606 0  0.3673210805066339 0.004048576418709386 0  0.3727746135437823 0.003891330909934085 0  0.3789246700786391 0.003712634483246944 0  0.3844721023230384 0.00355025746928806 0  0.3903845048135511 0.003376011435332509 0  0.3962935688476314 0.003200699755406988 0  0.4018430601204535 0.00303505085978487 0  0.4079921977692303 0.002850427660455144 0  0.4134449905916002 0.002685819499171436 0  0.4195385366679084 0.002500937932218923 0  0.425204482428441 0.002328206591247292 0  0.4309651825948974 0.00215183074136113 0  0.4370014133195289 0.001966263547608745 0  0.4424769325836848 0.00179732019881714 0  0.4486395183564056 0.001606544730410899 0  0.4541373275735043 0.001435838569361521 0  0.4601308451156257 0.001249254088784412 0  0.4659488863550298 0.001067707976620331 0  0.471564807260988 0.0008921302908496037 0  0.4776843759254726 0.0007004920228137959 0  0.4831317484445766 0.0005296836585198918 0  0.4892643513384632 0.0003372062279158936 0  0.4948528283485032 0.000161696161435303 0  0.5007056813361916 -2.216943068070812e-05 0  0.5066699093509902 -0.000209526046556915 0  0.5121845298566023 -0.0003826949545447442 0  0.5183439831944545 -0.0005759742926309219 0  0.5238088617282698 -0.0007472800272428554 0  0.5298681543527348 -0.0009369594486414562 0  0.5355929349139432 -0.001115856450691032 0  0.5412927239341832 -0.001293613669039852 0  0.5473668732672543 -0.001482588207084091 0  0.5528259073001393 -0.001651967505962102 0  0.5589819336317072 -0.001842386787779294 0  0.5645100189486582 -0.002012797049529044 0  0.5704524332663232 -0.002195301346534757 0  0.5763298911552834 -0.002375058665203144 0  0.5819006708717119 -0.002544689651648297 0  0.5880413281562127 -0.002730768313747055 0  0.5934904284812221 -0.002895042191696308 0  0.5995995320960693 -0.003078202338538874 0  0.605236779888003 -0.003246210954182579 0  0.6110299855290301 -0.003417806240976177 0  0.6170432999212266 -0.00359472323302265 0  0.6225307972792151 -0.00375505261922207 0  0.6286944373476531 -0.003933803567825084 0  0.6341794289295242 -0.004091634709336539 0  0.6401977648984302 -0.004263413669385436 0  0.6459846030577213 -0.004427148756161272 0  0.6516277670629291 -0.004585409549508515 0  0.6577342305863492 -0.004755038487876419 0  0.6631843111407589 -0.004904958327357115 0  0.6693271588517591 -0.005072208653571043 0  0.6748942591145469 -0.005222152905474348 0  0.6807781354428797 -0.005378892074409919 0  0.6867158102497221 -0.005535201343768038 0  0.6922478556369909 -0.005679100421160843 0  0.6984036264198542 -0.005837205328254034 0  0.7038624132928571 -0.005975584427524931 0  0.7099402809449575 -0.006127588021236129 0  0.7156361945945205 -0.006268012368771779 0  0.7213667017809595 -0.006407263887957157 0  0.7274241898103784 -0.006552202568912044 0  0.7328913375361901 -0.006680980644346233 0  0.7390522654079078 -0.006823736587757829 0  0.7445663161830813 -0.006949337256267011 0  0.7505345306161221 -0.007082931996795786 0  0.7563856967966242 -0.007211490056377221 0  0.7619775509571868 -0.007332073958440476 0  0.7681106054434813 -0.007461725199742056 0  0.7735594228940573 -0.007574589702563127 0  0.7796809699364847 -0.007698739982391196 0  0.7852974086111042 -0.007810142587226769 0  0.7911178568436495 -0.007923025648348906 0  0.797112403703894 -0.008036515862006795 0  0.8026119630288198 -0.008138129173272899 0  0.8087760180262171 -0.008249131188213875 0  0.814253500572072 -0.008345174877796967 0  0.8202905515677629 -0.008448166667805387 0  0.8260544286221699 -0.008543663134562481 0  0.831720415905675 -0.008634807324656511 0  0.8378167080097026 -0.008729817306667463 0  0.8432709709919499 -0.008812108559864256 0  0.8494209576248264 -0.008901791974276371 0  0.8549745826348545 -0.008979924427376591 0  0.8608814329347291 -0.009060026011188804 0  0.8667998142885592 -0.009137155111096256 0  0.8723460990452367 -0.009206568509458774 0  0.8784989383774584 -0.009280301817794542 0  0.8839552890388401 -0.009342788637451834 0  0.8900456692707091 -0.009409293585850673 0  0.8957233874467343 -0.009468190513990782 0  0.9014754209053449 -0.009524786393944277 0  0.9075213579987256 -0.009580921173179099 0  0.9129954731058688 -0.009628765913494807 0  0.9191593188847452 -0.009679229788646495 0  0.9246655330424429 -0.009721240864333262 0  0.9306503084472221 -0.009763603884533442 0  0.9364847200361547 -0.009801580348484516 0  0.9420914259676206 -0.009834972127394636 0  0.948219177636862 -0.009867976960504428 0  0.9536688877131657 -0.009894257783109666 0  0.9597979104438458 -0.009920349306153329 0  0.9654020314719589 -0.009940987600901847 0  0.9712398170272581 -0.009959209624459757 0  0.9772219132298864 -0.009974407121723252 0  0.9827297975109929 -0.009985285083248089 0  0.9888934840407251 -0.009993913310034224 0  0.9943667421923366 -0.009998434045983932 0  1.000414962337846 -0.009999991502249178 0  1.00616395254491 -0.009998125110441144 0  1.011844857354635 -0.009993077234903055 0  1.017933801412069 -0.009984132829796667 0  1.023390946643176 -0.00997301205183276 0  1.029544679732296 -0.009956955598792184 0  1.035089558108845 -0.009939300412459717 0  1.041010936359372 -0.009917116481575694 0  1.04691554237944 -0.00989157814857561 0  1.052471258615448 -0.009864440751261633 0  1.05862104751389 -0.009830897850136421 0  1.064075481579663 -0.009798076706746352 0  1.070173358231585 -0.009757978136698224 0  1.075837941143087 -0.00971752009646258 0  1.081604377355612 -0.009673173917302162 0  1.087640686528322 -0.009623351755525641 0  1.093119387704205 -0.009575135453199036 0  1.099284093826516 -0.009517491101966447 0  1.104783734376909 -0.009463052176492596 0  1.110779897618174 -0.009400480030121557 0  1.116599992234411 -0.00933655469875222 0  1.122217899723542 -0.009271889359757672 0  1.128339818747432 -0.009198135031144493 0  1.133789446190431 -0.00912961705214143 0  1.139923317158062 -0.009049295973540348 0  1.145515844317945 -0.008973134373133167 0  1.151367773813766 -0.008890475161473248 0  1.157336906671575 -0.008803064948780913 0  1.16285160438384 -0.008719557366803981 0  1.16901331600552 -0.008623157866544266 0  1.174481522907442 -0.00853490108265173 0  1.180539122189597 -0.008434191931863186 0  1.186271617394136 -0.008336073959344166 0  1.191966996821913 -0.008235914041393521 0  1.198046448076202 -0.008126091334838595 0  1.203505695906331 -0.008024945109277802 0  1.209661806077474 -0.007908057515838151 0  1.21519584913737 -0.007800455577732041 0  1.221132109188887 -0.00768241304184519 0  1.227019087412133 -0.007562711583992629 0  1.232585135446325 -0.007447155722966398 0  1.238729389023077 -0.007316953404904543 0  1.244180486899644 -0.007199156086382225 0  1.250286093435722 -0.007064709646262071 0  1.255932842016573 -0.006938052500145445 0  1.261716857103797 -0.006806053534187844 0  1.26773845151126 -0.006666245775332091 0  1.273222687278595 -0.006536836953056475 0  1.279386853652711 -0.00638906998029936 0  1.284876650734994 -0.006255450389977176 0  1.290887326898431 -0.00610702037198264 0  1.296685536664392 -0.00596177282270944 0  1.30231949087952 -0.005818744638503708 0  1.308431215520824
[...]
<PointData  Tensors="Total Stress"> 
<DataArray  type="Float64"  Name="Total Stress"  NumberOfComponents="9" format="ascii">1.2177271916090031e+00 3.0765039750543204e-05 0.0000000000000000e+00 3.0765039750543224e-05 2.6282117065641767e-02 0.0000000000000000e+00 0.0000000000000000e+00 0.0000000000000000e+00 0.0000000000000000e+00  1.2177271916090031e+00 3.0765039750543204e-05 0.0000000000000000e+00 3.0765039750543224e-05 2.6282117065641767e-02 0.0000000000000000e+00 0.0000000000000000e+00 0.0000000000000000e+00 0.0000000000000000e+00  7.8672207985623710e-01 8.1623540125824384e-05 0.0000000000000000e+00 8.1623540125824384e-05 -4.4375806695254117e-03 0.0000000000000000e+00 0.0000000000000000e+00 0.0000000000000000e+00 0.0000000000000000e+00  7.8672207985623710e-01 8.1623540125824384e-05 0.0000000000000000e+00 8.1623540125824384e-05 -4.4375806695254117e-03 0.0000000000000000e+00 0.0000000000000000e+00 0.0000000000000000e+00 0.0000000000000000e+00  1.2176719901584798e+00 -1.6554572483652129e-03 0.0000000000000000e+00 -1.6554572483652129e-03 2.6202708557392946e-02 0.0000000000000000e+00 0.0000000000000000e+00 0.0000000000000000e+00 0.0000000000000000e+00  1.2175624429930054e+00 -3.0065686835434014e-03 0.0000000000000000e+00 -3.0065686835434014e-03 2.6180856636335136e-02 0.0000000000000000e+00 0.0000000000000000e+00 0.0000000000000000e+00 0.0000000000000000e+00  1.2173732894467959e+00 -4.4171901880224974e-03 0.0000000000000000e+00 -4.4171901880224974e-03 2.6195757693778389e-02 0.0000000000000000e+00 0.0000000000000000e+00 0.0000000000000000e+00 0.0000000000000000e+00  1.2171049614266380e+00 -5.7887912566873447e-03 0.0000000000000000e+00 -5.7887912566873447e-03 2.6152549772073722e-02 0.0000000000000000e+00 0.0000000000000000e+00 0.0000000000000000e+00 0.0000000000000000e+00  1.2168053302188124e+00 -7.1876271855582695e-03 0.0000000000000000e+00 -7.1876271855582695e-03 2.6174794807066883e-02 0.0000000000000000e+00 0.0000000000000000e+00 0.0000000000000000e+00 0.0000000000000000e+00  1.2162952041734594e+00 -8.5986172516718043e-03 0.0000000000000000e+00 -8.5986172516718043e-03 2.6004849907693490e-02 0.0000000000000000e+00 0.0000000000000000e+00 0.0000000000000000e+00 0.0000000000000000e+00  1.2159209790641556e+00 -9.9197744446404522e-03 0.0000000000000000e+00 -9.9197744446404522e-03 2.6087275047969767e-02 0.0000000000000000e+00 0.0000000000000000e+00 0.0000000000000000e+00 0.0000000000000000e+00  1.2152973876803324e+00 -1.1326061444223795e-02 0.0000000000000000e+00 -1.1326061444223795e-02 2.6045076388368772e-02 0.0000000000000000e+00 0.0000000000000000e+00 0.0000000000000000e+00 0.0000000000000000e+00  1.2146998388969883e+00 -1.2677306221108180e-02 0.0000000000000000e+00 -1.2677306221108180e-02 2.5979352621975722e-02 0.0000000000000000e+00 0.0000000000000000e+00 0.0000000000000000e+00 0.0000000000000000e+00  1.2140218797417812e+00 -1.4114799076839555e-02 0.0000000000000000e+00 -1.4114799076839555e-02 2.5955744594306746e-02 0.0000000000000000e+00 0.0000000000000000e+00 0.0000000000000000e+00 0.0000000000000000e+00  1.2131814383257138e+00 -1.5425807167405282e-02 0.0000000000000000e+00 -1.5425807167405282e-02 2.5785977390478252e-02 0.0000000000000000e+00 0.0000000000000000e+00 0.0000000000000000e+00 0.0000000000000000e+00  1.2125180574253789e+00 -1.6725535400888780e-02 0.0000000000000000e+00 -1.6725535400888780e-02 2.5873954580015394e-02 0.0000000000000000e+00 0.0000000000000000e+00 0.0000000000000000e+00 0.0000000000000000e+00  1.2114309117123039e+00 -1.8188550397319085e-02 0.0000000000000000e+00 -1.8188550397319089e-02 2.5646614557716472e-02 0.0000000000000000e+00 0.0000000000000000e+00 0.0000000000000000e+00 0.0000000000000000e+00  1.2106139965463938e+00 -1.9500955979140002e-02 0.0000000000000000e+00 -1.9500955979139988e-02 2.5673875058864985e-02 0.0000000000000000e+00 0.0000000000000000e+00 0.0000000000000000e+00 0.0000000000000000e+00  1.2093992340239845e+00 -2.0904088689193176e-02 0.0000000000000000e+00 -2.0904088689193169e-02 2.5546849666231341e-02 0.0000000000000000e+00 0.0000000000000000e+00 0.0000000000000000e+00 0.0000000000000000e+00  1.2082889147087139e+00 -2.2206049250805542e-02 0.0000000000000000e+00 -2.2206049250805545e-02 2.5453207678284854e-02 0.0000000000000000e+00 0.0000000000000000e+00 0.0000000000000000e+00 0.0000000000000000e+00  1.2070902896703986e+00 -2.3580677332609323e-02 0.0000000000000000e+00 -2.3580677332609323e-02 2.5354717154504790e-02 0.0000000000000000e+00 0.0000000000000000e+00 0.0000000000000000e+00 0.0000000000000000e+00  1.2058046425417197e+00 -2.4908675582117828e-02 0.0000000000000000e+00 -2.4908675582117828e-02 2.5238931923231407e-02 0.0000000000000000e+00 0.0000000000000000e+00 0.0000000000000000e+00 0.0000000000000000e+00  1.2044979779945104e+00 -2.6182678119228576e-02 0.0000000000000000e+00 -2.6182678119228576e-02 2.5117745605990099e-02 0.0000000000000000e+00 0.0000000000000000e+00 0.0000000000000000e+00 0.0000000000000000e+00  1.2029866531007365e+00 -2.7554249060521296e-02 0.0000000000000000e+00 -2.7554249060521296e-02 2.4952056231420269e-02 0.0000000000000000e+00 0.0000000000000000e+00 0.0000000000000000e+00 0.0000000000000000e+00  1.2015973872276584e+00 -2.8753986138710209e-02 0.0000000000000000e+00 -2.8753986138710209e-02 2.4837645897194099e-02 0.0000000000000000e+00 0.0000000000000000e+00 0.0000000000000000e+00 0.0000000000000000e+00  1.1999817268855568e+00 -3.0117137061835941e-02 0.0000000000000000e+00 -3.0117137061835941e-02 2.4695297551928369e-02 0.0000000000000000e+00 0.0000000000000000e+00 0.0000000000000000e+00 0.0000000000000000e+00  1.1983855918350623e+00 -3.1313499254939862e-02 0.0000000000000000e+00 -3.1313499254939862e-02 2.4550177280334168e-02 0.0000000000000000e+00 0.0000000000000000e+00 0.0000000000000000e+00 0.0000000000000000e+00  1.1967256988037784e+00 -3.2481774332303141e-02 0.0000000000000000e+00 -3.2481774332303141e-02 2.4431038852866269e-02 0.0000000000000000e+00 0.0000000000000000e+00 0.0000000000000000e+00 0.0000000000000000e+00  1.1948771277752268e+00 -3.3813582267177671e-02 0.0000000000000000e+00 -3.3813582267177671e-02 2.4209648197398938e-02 0.0000000000000000e+00 0.0000000000000000e+00 0.0000000000000000e+00 0.0000000000000000e+00  1.1932369178879936e+00 -3.4970502456495106e-02 0.0000000000000000e+00 -3.4970502456495085e-02 2.4136159309933763e-02 0.0000000000000000e+00 0.0000000000000000e+00 0.0000000000000000e+00 0.0000000000000000e+00  1.1912194640697236e+00 -3.6237965287934881e-02 0.0000000000000000e+00 -3.6237965287934881e-02 2.3966214187710472e-02 0.0000000000000000e+00 0.0000000000000000e+00 0.0000000000000000e+00 0.0000000000000000e+00  1.1893841622719541e+00 -3.7386592757003796e-02 0.0000000000000000e+00 -3.7386592757003796e-02 2.3788217483872227e-02 0.0000000000000000e+00 0.0000000000000000e+00 0.0000000000000000e+00 0.0000000000000000e+00  1.1873586876124747e+00 -3.8624147649529719e-02 0.0000000000000000e+00 -3.8624147649529726e-02 2.3622573116712713e-02 0.0000000000000000e+00 0.0000000000000000e+00 0.0000000000000000e+00 0.0000000000000000e+00  1.1852685629301190e+00 -3.9804965742971966e-02 0.0000000000000000e+00 -3.9804965742971973e-02 2.3434523461251678e-02 0.0000000000000000e+00 0.0000000000000000e+00 0.0000000000000000e+00 0.0000000000000000e+00  1.1832705029374069e+00 -4.0898047708075834e-02 0.0000000000000000e+00 -4.0898047708075841e-02 2.3187808687799738e-02 0.0000000000000000e+00 0.0000000000000000e+00 0.0000000000000000e+00 0.0000000000000000e+00  1.1809043416242815e+00 -4.2102848193762428e-02 0.0000000000000000e+00 -4.2102848193762428e-02 2.2990269725500827e-02 0.0000000000000000e+00 0.0000000000000000e+00 0.0000000000000000e+00 0.0000000000000000e+00  1.1787242441725652e+00 -4.3173144870954749e-02 0.0000000000000000e+00 -4.3173144870954749e-02 2.2736107253303769e-02 0.0000000000000000e+00 0.0000000000000000e+00 0.0000000000000000e+00 0.0000000000000000e+00  1.1764873022593694e+00 -4.4399463360387074e-02 0.0000000000000000e+00 -4.4399463360387074e-02 2.2690144595872583e-02 0.0000000000000000e+00 0.0000000000000000e+00 0.0000000000000000e+00 0.0000000000000000e+00  1.1740635390910872e+00 -4.5463523715559284e-02 0.0000000000000000e+00 -4.5463523715559284e-02 2.2361336795896386e-02 0.0000000000000000e+00 0.0000000000000000e+00 0.0000000000000000e+00 0.0000000000000000e+00  1.1717265630037594e+00 -4.6523181410571289e-02 0.0000000000000000e+00 -4.6523181410571289e-02 2.2295315308114478e-02 0.0000000000000000e+00 0.0000000000000000e+00 0.0000000000000000e+00 0.0000000000000000e+00  1.1691920079220992e+00 -4.7505493310232967e-02 0.0000000000000000e+00 -4.7505493310232967e-02 2.2112537537397243e-02 0.0000000000000000e+00 0.0000000000000000e+00 0.0000000000000000e+00 0.0000000000000000e+00  1.1668038891812706e+00 -4.8561520222364422e-02 0.0000000000000000e+00 -4.8561520222364422e-02 2.1914885922718386e-02 0.0000000000000000e+00 0.0000000000000000e+00 0.0000000000000000e+00 0.0000000000000000e+00  1.1640249472993007e+00 -4.9671611231358437e-02 0.0000000000000000e+00 -4.9671611231358437e-02 2.1689807576011244e-02 0.0000000000000000e+00 0.0000000000000000e+00 0.0000000000000000e+00 0.0000000000000000e+00  1.1616513981762420e+00 -5.0610538913840618e-02 0.0000000000000000e+00 -5.0610538913840618e-02 2.1523820945713510e-02 0.0000000000000000e+00 0.0000000000000000e+00 0.0000000000000000e+00 0.0000000000000000e+00  1.1589388186655325e+00 -5.1609679734085374e-02 0.0000000000000000e+00 -5.1609679734085374e-02 2.1334882141515670e-02 0.0000000000000000e+00 0.0000000000000000e+00 0.0000000000000000e+00 0.0000000000000000e+00  1.1561411682356548e+00 -5.2680374970662962e-02 0.0000000000000000e+00 -5.2680374970662969e-02 2.1049902874565086e-02 0.0000000000000000e+00 0.0000000000000000e+00 0.0000000000000000e+00 0.0000000000000000e+00  1.1534532545696143e+00 -5.3717175985166482e-02 0.0000000000000000e+00 -5.3717175985166482e-02 2.0914891450591385e-02 0.0000000000000000e+00 0.0000000000000000e+00 0.0000000000000000e+00 0.0000000000000000e+00  1.1503836450085727e+00 -5.4682453552849175e-02 0.0000000000000000e+00 -5.4682453552849175e-02 2.0578025691517079e-02 0.0000000000000000e+00 0.0000000000000000e+00 0.0000000000000000e+00 0.0000000000000000e+00  1.1476986521645074e+00 -5.5575306741272798e-02 0.0000000000000000e+00 -5.5575306741272798e-02 2.0388951750320440e-02 0.0000000000000000e+00 0.0000000000000000e+00 0.0000000000000000e+00 0.0000000000000000e+00  1.1445008976574211e+00 -5.6568342166490829e-02 0.0000000000000000e+00 -5.6568342166490829e-02 2.0118212625843283e-02 0.0000000000000000e+00 0.0000000000000000e+00 0.0000000000000000e+00 0.0000000000000000e+00  1.1416808777601481e+00 -5.7425135016284802e-02 0.0000000000000000e+00 -5.7425135016284802e-02 1.9868536516603471e-02 0.0000000000000000e+00 0.0000000000000000e+00 0.0000000000000000e+00 0.0000000000000000e+00  1.1385656298753335e+00 -5.8315287238422837e-02 0.0000000000000000e+00 -5.8315287238422837e-02 1.9608270733300081e-02 0.0000000000000000e+00 0.0000000000000000e+00 0.0000000000000000e+00 0.0000000000000000e+00  1.1354076497861239e+00 -5.9196265002815614e-02 0.0000000000000000e+00 -5.9196265002815614e-02 1.9290845988403825e-02 0.0000000000000000e+00 0.0000000000000000e+00 0.0000000000000000e+00 0.0000000000000000e+00  1.1323526733924156e+00 -6.0020196857167467e-02 0.0000000000000000e+00 -6.0020196857167467e-02 1.9005579399900843e-02 0.0000000000000000e+00 0.0000000000000000e+00 0.0000000000000000e+00 0.0000000000000000e+00  1.1289497150652426e+00 -6.0860496820410510e-02 0.0000000000000000e+00 -6.0860496820410510e-02 1.8667036775695662e-02 0.0000000000000000e+00 0.0000000000000000e+00 0.0000000000000000e+00 0.0000000000000000e+00  1.1258495275281477e+00 -6.1610933719807290e-02 0.0000000000000000e+00 -6.1610933719807290e-02 1.8328590372716627e-02 0.0000000000000000e+00 0.0000000000000000e+00 0.0000000000000000e+00 0.0000000000000000e+00  1.1225143167905405e+00 -6.2449093690991213e-02 0.0000000000000000e+00 -6.2449093690991213e-02 1.8037054164830129e-02 0.0000000000000000e+00 0.0000000000000000e+00 0.0000000000000000e+00 0.0000000000000000e+00  1.1192311994486230e+00 -6.3160005639791031e-02 0.0000000000000000e+00 -6.3160005639791031e-02 1.7702437475962930e-02 0.0000000000000000e+00 0.0000000000000000e+00 0.0000000000000000e+00 0.0000000000000000e+00  1.1159676079455716e+00 -6.3927131247950755e-02 0.0000000000000000e+00 -6.3927131247950755e-02 1.7486088445517588e-02 0.0000000000000000e+00 0.0000000000000000e+00 0.0000000000000000e+00 0.0000000000000000e+00  1.1123782464968617e+00 -6.4565843831762837e-02 0.0000000000000000e+00 -6.4565843831762837e-02 1.7130000865275136e-02 0.0000000000000000e+00 0.0000000000000000e+00 0.0000000000000000e+00 0.0000000000000000e+00  1.1092037655405529e+00 -6.5206383224933523e-02 0.0000000000000000e+00 -6.5206383224933523e-02 1.6934634840758599e-02 0.0000000000000000e+00 0.0000000000000000e+00 0.0000000000000000e+00 0.0000000000000000e+00  1.1054659602939227e+00 -6.5904248394140719e-02 0.0000000000000000e+00 -6.5904248394140719e-02 1.6597137154335435e-02 0.0000000000000000e+00 0.0000000000000000e+00 0.0000000000000000e+00 0.0000000000000000e+00  1.1021507955094925e+00 -6.6591377567729787e-02 0.0000000000000000e+00 -6.6591377567729773e-02 1.6246350966596400e-02 0.0000000000000000e+00 0.0000000000000000e+00 0.0000000000000000e+00 0.0000000000000000e+00  1.0984589155131383e+00 -6.7311154254072497e-02 0.0000000000000000e+00 -6.7311154254072497e-02 1.5893660931623185e-02 0.0000000000000000e+00 0.0000000000000000e+00 0.0000000000000000e+00 0.0000000000000000e+00  1.0948197513616553e+00 -6.7917225765828607e-02 0.0000000000000000e+00 -6.7917225765828607e-02 1.5466321538127947e-02 0.0000000000000000e+00 0.0000000000000000e+00 0.0000000000000000e+00 0.0000000000000000e+00  1.0912691425826269e+00 -6.8520467986283543e-02 0.0000000000000000e+00 -6.8520467986283543e-02 1.5128927114275215e-02 0.0000000000000000e+00 0.0000000000000000e+00 0.0000000000000000e+00 0.0000000000000000e+00  1.0873355204635036e+00 -6.9107643214864525e-02 0.0000000000000000e+00 -6.9107643214864525e-02 1.4690732554552093e-02 0.0000000000000000e+00 0.0000000000000000e+00 0.0000000000000000e+00 0.0000000000000000e+00  1.0838515464869516e+00 -6.9580116049556107e-02 0.0000000000000000e+00 -6.9580116049556079e-02 1.4204970707527492e-02 0.0000000000000000e+00 0.0000000000000000e+00 0.0000000000000000e+00 0.0000000000000000e+00  1.0797795242243464e+00 -7.0084383047034515e-02 0.0000000000000000e+00 -7.0084383047034529e-02 1.3838038756947862e-02 0.0000000000000000e+00 0.0000000000000000e+00 0.0000000000000000e+00 0.0000000000000000e+00  1.0762218494755591e+00 -7.0519819851362173e-02 0.0000000000000000e+00 -7.0519819851362173e-02 1.3448046994157891e-02 0.0000000000000000e+00 0.0000000000000000e+00 0.0000000000000000e+00 0.0000000000000000e+00  1.0724503788687940e+00 -7.1042949092630731e-02 0.0000000000000000e+00 -7.1042949092630731e-02 1.3074741856508641e-02 0.0000000000000000e+00 0.0000000000000000e+00 0.0000000000000000e+00 0.0000000000000000e+00  1.0685564869962436e+00 -7.1372953032185035e-02 0.0000000000000000e+00 -7.1372953032185035e-02 1.2761377382222213e-02 0.0000000000000000e+00 0.0000000000000000e+00 0.0000000000000000e+00 0.0000000000000000e+00  1.0647824558208092e+00 -7.1679542704192065e-02 0.0000000000000000e+00 -7.1679542704192051e-02 1.2434545636549787e-02 0.0000000000000000e+00 0.0000000000000000e+00 0.0000000000000000e+00 0.0000000000000000e+00  1.0608310492524631e+00 -7.2204474411170019e-02 0.0000000000000000e+00 -7.2204474411170019e-02 1.2014576675177462e-02 0.0000000000000000e+00 0.0000000000000000e+00 0.0000000000000000e+00 0.0000000000000000e+00  1.0571078752289942e+00 -7.2503198236452515e-02 0.0000000000000000e+00 -7.2503198236452515e-02 1.1557565025742267e-02 0.0000000000000000e+00 0.0000000000000000e+00 0.0000000000000000e+00 0.0000000000000000e+00  1.0531867787555385e+00 -7.2972337519015898e-02 0.0000000000000000e+00 -7.2972337519015898e-02 1.1249313480118898e-02 0.0000000000000000e+00 0.0000000000000000e+00 0.0000000000000000e+00 0.0000000000000000e+00  1.0493168033509961e+00 -7.3416930364734609e-02 0.0000000000000000e+00 -7.3416930364734609e-02 1.0645828675659689e-02 0.0000000000000000e+00 0.0000000000000000e+00 0.0000000000000000e+00 0.0000000000000000e+00  1.0453939500465084e+00 -7.3752826548315054e-02 0.0000000000000000e+00 -7.3752826548315054e-02 1.0220060033448528e-02 0.0000000000000000e+00 0.0000000000000000e+00 0.0000000000000000e+00 0.0000000000000000e+00  1.0411117719922482e+00 -7.3911781643103094e-02 0.0000000000000000e+00 -7.3911781643103094e-02 9.7372917096241168e-03 0.0000000000000000e+00 0.0000000000000000e+00 0.0000000000000000e+00 0.0000000000000000e+00  1.0373018434501591e+00 -7.4103997117049999e-02 0.0000000000000000e+00 -7.4103997117049999e-02 9.2334245166428176e-03 0.0000000000000000e+00 0.0000000000000000e+00 0.0000000000000000e+00 0.0000000000000000e+00  1.0330581093235776e+00 -7.4294135357664465e-02 0.0000000000000000e+00 -7.4294135357664465e-02 8.7372144889683971e-03 0.0000000000000000e+00 0.0000000000000000e+00 0.0000000000000000e+00 0.0000000000000000e+00  1.0291389597635281e+00 -7.4524181209885437e-02 0.0000000000000000e+00 -7.4524181209885437e-02 8.2615398490493933e-03 0.0000000000000000e+00 0.0000000000000000e+00 0.0000000000000000e+00 0.0000000000000000e+00  1.0249570832987203e+00 -7.4678913733741886e-02 0.0000000000000000e+00 -7.4678913733741886e-02 7.7679600163249804e-03 0.0000000000000000e+00 0.0000000000000000e+00 0.0000000000000000e+00 0.0000000000000000e+00  1.0208892466885431e+00 -7.4807545865338651e-02 0.0000000000000000e+00 -7.4807545865338651e-02 7.2694233375679420e-03 0.0000000000000000e+00 0.0000000000000000e+00 0.0000000000000000e+00 0.0000000000000000e+00  1.0169666286918497e+00 -7.4935504680357687e-02 0.0000000000000000e+00 -7.4935504680357687e-02 6.8216864135058237e-03 0.0000000000000000e+00 0.0000000000000000e+00 0.0000000000000000e+00 0.0000000000000000e+00  1.0126661396014771e+00 -7.5020968592655932e-02 0.0000000000000000e+00 -7.5020968592655959e-02 6.2954174348508639e-03 0.0000000000000000e+00 0.0000000000000000e+00 0.0000000000000000e+00 0.0000000000000000e+00  1.0088394968350058e+00 -7.5083664455200164e-02 0.0000000000000000e+00 -7.5083664455200164e-02 5.8336509811130486e-03 0.0000000000000000e+00 0.0000000000000000e+00 0.0000000000000000e+00 0.0000000000000000e+00  1.0044995940111687e+00 -7.5106693374540776e-02 0.0000000000000000e+00 -7.5106693374540776e-02 5.2812055949578102e-03 0.0000000000000000e+00 0.0000000000000000e+00 0.0000000000000000e+00 0.0000000000000000e+00  1.0005187309715309e+00 -7.5130500206553749e-02 0.0000000000000000e+00 -7.5130500206553749e-02 4.8045045816148295e-03 0.0000000000000000e+00 0.0000000000000000e+00 0.0000000000000000e+00 0.0000000000000000e+00  9.9637591124779346e-01 -7.5117229185567139e-02 0.0000000000000000e+00 -7.5117229185567139e-02 4.2795791065167073e-03 0.0000000000000000e+00 0.0000000000000000e+00 0.0000000000000000e+00 0.0000000000000000e+00  9.9217392660567916e-01 -7.5082261145031595e-02 0.0000000000000000e+00 -7.5082261145031595e-02 3.7642761811753091e-03 0.0000000000000000e+00 0.0000000000000000e+00 0.0000000000000000e+00 0.0000000000000000e+00  9.8828367907936854e-01 -7.5042738094762765e-02 0.0000000000000000e+00 -7.5042738094762765e-02 3.2658472156031852e-03 0.0000000000000000e+00 0.0000000000000000e+00 0.0000000000000000e+00 0.0000000000000000e+00  9.8393031495727679e-01 -7.4940722014004951e-02 0.0000000000000000e+00 -7.4940722014004951e-02 2.7260263808221202e-03 0.0000000000000000e+00 0.0000000000000000e+00 0.0000000000000000e+00 0.0000000000000000e+00  9.8005766758863799e-01 -7.4835591418375202e-02 0.0000000000000000e+00 -7.4835591418375202e-02 2.2430997481094786e-03 0.0000000000000000e+00 0.0000000000000000e+00 0.0000000000000000e+00 0.0000000000000000e+00  9.7573118468601894e-01 -7.4712324225887139e-02 0.0000000000000000e+00 -7.4712324225887139e-02 1.7074236445006746e-03 0.0000000000000000e+00 0.