<?xml version="1.0"?>
<VTKFile type="UnstructuredGrid"  version="0.1"  >
<UnstructuredGrid>
<Piece  NumberOfPoints="4290" NumberOfCells="6796">
<Points>
<DataArray  type="Float64"  NumberOfComponents="3"  format="ascii">0 0.01 0  10 0.01 0  0 1.016904071333261 0  10 1.016904071333261 0  0.007129524987038337 0.009997491741717768 0  0.01258064459049757 0.00999219056738478 0  0.01872173241756402 0.009982708334120727 0  0.02429919625640796 0.009970876572043954 0  0.03017238705920286 0.009955108531615313 0  0.03612352734296466 0.0099356743715591 0  0.04164979236492252 0.009914517792428084 0  0.04780928449023854 0.009887415768096998 0  0.05327287671237849 0.009860276931383746 0  0.0593436395885565 0.009826715421083503 0  0.06505608699933001 0.009791870631895848 0  0.07077243060783153 0.009753845329312128 0  0.07684085351634186 0.009710036052663748 0  0.08230528612367993 0.009667566921662384 0  0.08846525752759338 0.009616276826848907 0  0.09398926586603956 0.0095672187064786 0  0.09994377871281757 0.009511110804477986 0  0.10581288515308 0.009452550633355501 0  0.1113930001121819 0.009393893683773193 0  0.1175326299024069 0.009326020378011352 0  0.122983161250664 0.009262856809916281 0  0.1290978349347763 0.009188765415777931 0  0.1347300222736412 0.00911751981665075 0  0.1405327472005438 0.009041131768776852 0  0.1465421455697866 0.008958856277281909 0  0.1520341809431761 0.008880870879718691 0  0.1581991754706344 0.00879018143976357 0  0.1636834803794234 0.008706732874359017 0  0.1697073563005918 0.008612096527554045 0  0.1754901396361989 0.008518345936558386 0  0.1811391035120075 0.008424050210098115 0  0.1872444279222087 0.00831915423323064 0  0.1926961446341008 0.008222899998379215 0  0.198841090009393 0.008111516418624823 0  0.2044064770158165 0.008008028244452866 0  0.2102948627703611 0.007895869216798803 0  0.2162299794791283 0.007780085801116003 0  0.2217647046821167 0.007669675498109103 0  0.2279204403470532 0.007544154739747676 0  0.2333791472114919 0.007430485124751003 0  0.2394590817234977 0.0073013084386626 0  0.245152498789355 0.007177928079207972 0  0.2508861115607116 0.007051356111670669 0  0.2569419868439766 0.006915186417023598 0  0.2624099649457279 0.006790084113692359 0  0.2685711825796066 0.006646722567663751 0  0.274083748205357 0.006516341894728842 0  0.2800541704182985 0.00637292855786236 0  0.2859022845836161 0.006230279166502627 0  0.291495955429921 0.006091868246150131 0  0.2976275706217687 0.005937986548763313 0  0.3030757324287757 0.005799406374294222 0  0.3091980118239236 0.005641654227187252 0  0.3148109405089491 0.005495191514879527 0  0.3206341933715942 0.005341435282378838 0  0.3266248575896781 0.005181393525330103 0  0.3321252080346692 0.005032833254881577 0  0.3382880718234609 0.004864596209960478 0  0.3437628463580178 0.004713611578807419 0  0.3498021006600692 0.004545443593512952 0  0.3555594631656461 0.004383601001460968 0  0.3612291099056053 0.004222822711549606 0  0.3673210805066339 0.004048576418709386 0  0.3727746135437823 0.003891330909934085 0  0.3789246700786391 0.003712634483246944 0  0.3844721023230384 0.00355025746928806 0  0.3903845048135511 0.003376011435332509 0  0.3962935688476314 0.003200699755406988 0  0.4018430601204535 0.00303505085978487 0  0.4079921977692303 0.002850427660455144 0  0.4134449905916002 0.002685819499171436 0  0.4195385366679084 0.002500937932218923 0  0.425204482428441 0.002328206591247292 0  0.4309651825948974 0.00215183074136113 0  0.4370014133195289 0.001966263547608745 0  0.4424769325836848 0.00179732019881714 0  0.4486395183564056 0.001606544730410899 0  0.4541373275735043 0.001435838569361521 0  0.4601308451156257 0.001249254088784412 0  0.4659488863550298 0.001067707976620331 0  0.471564807260988 0.0008921302908496037 0  0.4776843759254726 0.0007004920228137959 0  0.4831317484445766 0.0005296836585198918 0  0.4892643513384632 0.0003372062279158936 0  0.4948528283485032 0.000161696161435303 0  0.5007056813361916 -2.216943068070812e-05 0  0.5066699093509902 -0.000209526046556915 0  0.5121845298566023 -0.0003826949545447442 0  0.5183439831944545 -0.0005759742926309219 0  0.5238088617282698 -0.0007472800272428554 0  0.5298681543527348 -0.0009369594486414562 0  0.5355929349139432 -0.001115856450691032 0  0.5412927239341832 -0.001293613669039852 0  0.5473668732672543 -0.001482588207084091 0  0.5528259073001393 -0.001651967505962102 0  0.5589819336317072 -0.001842386787779294 0  0.5645100189486582 -0.002012797049529044 0  0.5704524332663232 -0.002195301346534757 0  0.5763298911552834 -0.002375058665203144 0  0.5819006708717119 -0.002544689651648297 0  0.5880413281562127 -0.002730768313747055 0  0.5934904284812221 -0.002895042191696308 0  0.5995995320960693 -0.003078202338538874 0  0.605236779888003 -0.003246210954182579 0  0.6110299855290301 -0.003417806240976177 0  0.6170432999212266 -0.00359472323302265 0  0.6225307972792151 -0.00375505261922207 0  0.6286944373476531 -0.003933803567825084 0  0.6341794289295242 -0.004091634709336539 0  0.6401977648984302 -0.004263413669385436 0  0.6459846030577213 -0.004427148756161272 0  0.6516277670629291 -0.004585409549508515 0  0.6577342305863492 -0.004755038487876419 0  0.6631843111407589 -0.004904958327357115 0  0.6693271588517591 -0.005072208653571043 0  0.6748942591145469 -0.005222152905474348 0  0.6807781354428797 -0.005378892074409919 0  0.6867158102497221 -0.005535201343768038 0  0.6922478556369909 -0.005679100421160843 0  0.6984036264198542 -0.005837205328254034 0  0.7038624132928571 -0.005975584427524931 0  0.7099402809449575 -0.006127588021236129 0  0.7156361945945205 -0.006268012368771779 0  0.7213667017809595 -0.006407263887957157 0  0.7274241898103784 -0.006552202568912044 0  0.7328913375361901 -0.006680980644346233 0  0.7390522654079078 -0.006823736587757829 0  0.7445663161830813 -0.006949337256267011 0  0.7505345306161221 -0.007082931996795786 0  0.7563856967966242 -0.007211490056377221 0  0.7619775509571868 -0.007332073958440476 0  0.7681106054434813 -0.007461725199742056 0  0.7735594228940573 -0.007574589702563127 0  0.7796809699364847 -0.007698739982391196 0  0.7852974086111042 -0.007810142587226769 0  0.7911178568436495 -0.007923025648348906 0  0.797112403703894 -0.008036515862006795 0  0.8026119630288198 -0.008138129173272899 0  0.8087760180262171 -0.008249131188213875 0  0.814253500572072 -0.008345174877796967 0  0.8202905515677629 -0.008448166667805387 0  0.8260544286221699 -0.008543663134562481 0  0.831720415905675 -0.008634807324656511 0  0.8378167080097026 -0.008729817306667463 0  0.8432709709919499 -0.008812108559864256 0  0.8494209576248264 -0.008901791974276371 0  0.8549745826348545 -0.008979924427376591 0  0.8608814329347291 -0.009060026011188804 0  0.8667998142885592 -0.009137155111096256 0  0.8723460990452367 -0.009206568509458774 0  0.8784989383774584 -0.009280301817794542 0  0.8839552890388401 -0.009342788637451834 0  0.8900456692707091 -0.009409293585850673 0  0.8957233874467343 -0.009468190513990782 0  0.9014754209053449 -0.009524786393944277 0  0.9075213579987256 -0.009580921173179099 0  0.9129954731058688 -0.009628765913494807 0  0.9191593188847452 -0.009679229788646495 0  0.9246655330424429 -0.009721240864333262 0  0.9306503084472221 -0.009763603884533442 0  0.9364847200361547 -0.009801580348484516 0  0.9420914259676206 -0.009834972127394636 0  0.948219177636862 -0.009867976960504428 0  0.9536688877131657 -0.009894257783109666 0  0.9597979104438458 -0.009920349306153329 0  0.9654020314719589 -0.009940987600901847 0  0.9712398170272581 -0.009959209624459757 0  0.9772219132298864 -0.009974407121723252 0  0.9827297975109929 -0.009985285083248089 0  0.9888934840407251 -0.009993913310034224 0  0.9943667421923366 -0.009998434045983932 0  1.000414962337846 -0.009999991502249178 0  1.00616395254491 -0.009998125110441144 0  1.011844857354635 -0.009993077234903055 0  1.017933801412069 -0.009984132829796667 0  1.023390946643176 -0.00997301205183276 0  1.029544679732296 -0.009956955598792184 0  1.035089558108845 -0.009939300412459717 0  1.041010936359372 -0.009917116481575694 0  1.04691554237944 -0.00989157814857561 0  1.052471258615448 -0.009864440751261633 0  1.05862104751389 -0.009830897850136421 0  1.064075481579663 -0.009798076706746352 0  1.070173358231585 -0.009757978136698224 0  1.075837941143087 -0.00971752009646258 0  1.081604377355612 -0.009673173917302162 0  1.087640686528322 -0.009623351755525641 0  1.093119387704205 -0.009575135453199036 0  1.099284093826516 -0.009517491101966447 0  1.104783734376909 -0.009463052176492596 0  1.110779897618174 -0.009400480030121557 0  1.116599992234411 -0.00933655469875222 0  1.122217899723542 -0.009271889359757672 0  1.128339818747432 -0.009198135031144493 0  1.133789446190431 -0.00912961705214143 0  1.139923317158062 -0.009049295973540348 0  1.145515844317945 -0.008973134373133167 0  1.151367773813766 -0.008890475161473248 0  1.157336906671575 -0.008803064948780913 0  1.16285160438384 -0.008719557366803981 0  1.16901331600552 -0.008623157866544266 0  1.174481522907442 -0.00853490108265173 0  1.180539122189597 -0.008434191931863186 0  1.186271617394136 -0.008336073959344166 0  1.191966996821913 -0.008235914041393521 0  1.198046448076202 -0.008126091334838595 0  1.203505695906331 -0.008024945109277802 0  1.209661806077474 -0.007908057515838151 0  1.21519584913737 -0.007800455577732041 0  1.221132109188887 -0.00768241304184519 0  1.227019087412133 -0.007562711583992629 0  1.232585135446325 -0.007447155722966398 0  1.238729389023077 -0.007316953404904543 0  1.244180486899644 -0.007199156086382225 0  1.250286093435722 -0.007064709646262071 0  1.255932842016573 -0.006938052500145445 0  1.261716857103797 -0.006806053534187844 0  1.26773845151126 -0.006666245775332091 0  1.273222687278595 -0.006536836953056475 0  1.279386853652711 -0.00638906998029936 0  1.284876650734994 -0.006255450389977176 0  1.290887326898431 -0.00610702037198264 0  1.296685536664392 -0.00596177282270944 0  1.30231949087952 -0.005818744638503708 0  1.308431215520824
[...]
<PointData  Tensors="Total Stress"> 
<DataArray  type="Float64"  Name="Total Stress"  NumberOfComponents="9" format="ascii">1.2259004737794783e+00 -1.9556363978432210e-05 0.0000000000000000e+00 -1.9556363978432186e-05 3.4509049939384327e-02 0.0000000000000000e+00 0.0000000000000000e+00 0.0000000000000000e+00 0.0000000000000000e+00  1.2259004737794783e+00 -1.9556363978432210e-05 0.0000000000000000e+00 -1.9556363978432186e-05 3.4509049939384327e-02 0.0000000000000000e+00 0.0000000000000000e+00 0.0000000000000000e+00 0.0000000000000000e+00  8.4225122372102679e-01 2.2936144107178985e-05 0.0000000000000000e+00 2.2936144107178937e-05 -3.7380531766054307e-03 0.0000000000000000e+00 0.0000000000000000e+00 0.0000000000000000e+00 0.0000000000000000e+00  8.4225122372102679e-01 2.2936144107178985e-05 0.0000000000000000e+00 2.2936144107178937e-05 -3.7380531766054307e-03 0.0000000000000000e+00 0.0000000000000000e+00 0.0000000000000000e+00 0.0000000000000000e+00  1.2258746087552070e+00 -1.8237827144752842e-03 0.0000000000000000e+00 -1.8237827144752842e-03 3.4392702931251636e-02 0.0000000000000000e+00 0.0000000000000000e+00 0.0000000000000000e+00 0.0000000000000000e+00  1.2257531612800872e+00 -3.2733017586171892e-03 0.0000000000000000e+00 -3.2733017586171892e-03 3.4373993135282777e-02 0.0000000000000000e+00 0.0000000000000000e+00 0.0000000000000000e+00 0.0000000000000000e+00  1.2255566774462341e+00 -4.7937782991884269e-03 0.0000000000000000e+00 -4.7937782991884269e-03 3.4379903944517211e-02 0.0000000000000000e+00 0.0000000000000000e+00 0.0000000000000000e+00 0.0000000000000000e+00  1.2252707557293936e+00 -6.2712121950179922e-03 0.0000000000000000e+00 -6.2712121950179922e-03 3.4327012383887183e-02 0.0000000000000000e+00 0.0000000000000000e+00 0.0000000000000000e+00 0.0000000000000000e+00  1.2249632277998790e+00 -7.7734366768484808e-03 0.0000000000000000e+00 -7.7734366768484808e-03 3.4328694419209042e-02 0.0000000000000000e+00 0.0000000000000000e+00 0.0000000000000000e+00 0.0000000000000000e+00  1.2244451939761669e+00 -9.2819855432137756e-03 0.0000000000000000e+00 -9.2819855432137756e-03 3.4129530786066377e-02 0.0000000000000000e+00 0.0000000000000000e+00 0.0000000000000000e+00 0.0000000000000000e+00  1.2239920962044208e+00 -1.0703849452106574e-02 0.0000000000000000e+00 -1.0703849452106574e-02 3.4217245131948459e-02 0.0000000000000000e+00 0.0000000000000000e+00 0.0000000000000000e+00 0.0000000000000000e+00  1.2232826281185829e+00 -1.2242500815069477e-02 0.0000000000000000e+00 -1.2242500815069477e-02 3.4122435922453211e-02 0.0000000000000000e+00 0.0000000000000000e+00 0.0000000000000000e+00 0.0000000000000000e+00  1.2226778711549358e+00 -1.3688854869764249e-02 0.0000000000000000e+00 -1.3688854869764249e-02 3.4032192398948037e-02 0.0000000000000000e+00 0.0000000000000000e+00 0.0000000000000000e+00 0.0000000000000000e+00  1.2219283163647188e+00 -1.5233475101021536e-02 0.0000000000000000e+00 -1.5233475101021540e-02 3.3976829529696363e-02 0.0000000000000000e+00 0.0000000000000000e+00 0.0000000000000000e+00 0.0000000000000000e+00  1.2210954595768457e+00 -1.6634237069214689e-02 0.0000000000000000e+00 -1.6634237069214686e-02 3.3801129740703338e-02 0.0000000000000000e+00 0.0000000000000000e+00 0.0000000000000000e+00 0.0000000000000000e+00  1.2203619852369809e+00 -1.8046875780953042e-02 0.0000000000000000e+00 -1.8046875780953046e-02 3.3854568750672311e-02 0.0000000000000000e+00 0.0000000000000000e+00 0.0000000000000000e+00 0.0000000000000000e+00  1.2193271408849413e+00 -1.9569231407967517e-02 0.0000000000000000e+00 -1.9569231407967513e-02 3.3585076507132945e-02 0.0000000000000000e+00 0.0000000000000000e+00 0.0000000000000000e+00 0.0000000000000000e+00  1.2184180919468808e+00 -2.0984647308982737e-02 0.0000000000000000e+00 -2.0984647308982737e-02 3.3593215161890386e-02 0.0000000000000000e+00 0.0000000000000000e+00 0.0000000000000000e+00 0.0000000000000000e+00  1.2172039282230382e+00 -2.2488878909058600e-02 0.0000000000000000e+00 -2.2488878909058600e-02 3.3425321663836709e-02 0.0000000000000000e+00 0.0000000000000000e+00 0.0000000000000000e+00 0.0000000000000000e+00  1.2160842503118332e+00 -2.3879041647085153e-02 0.0000000000000000e+00 -2.3879041647085153e-02 3.3270639839509876e-02 0.0000000000000000e+00 0.0000000000000000e+00 0.0000000000000000e+00 0.0000000000000000e+00  1.2148162124003670e+00 -2.5349430470547631e-02 0.0000000000000000e+00 -2.5349430470547628e-02 3.3141100136862167e-02 0.0000000000000000e+00 0.0000000000000000e+00 0.0000000000000000e+00 0.0000000000000000e+00  1.2134429170195613e+00 -2.6753192220143645e-02 0.0000000000000000e+00 -2.6753192220143645e-02 3.2955631989700619e-02 0.0000000000000000e+00 0.0000000000000000e+00 0.0000000000000000e+00 0.0000000000000000e+00  1.2120945197378128e+00 -2.8125275963446102e-02 0.0000000000000000e+00 -2.8125275963446109e-02 3.2805114604835768e-02 0.0000000000000000e+00 0.0000000000000000e+00 0.0000000000000000e+00 0.0000000000000000e+00  1.2105117160033958e+00 -2.9584140938742311e-02 0.0000000000000000e+00 -2.9584140938742311e-02 3.2593917654958740e-02 0.0000000000000000e+00 0.0000000000000000e+00 0.0000000000000000e+00 0.0000000000000000e+00  1.2090745348053156e+00 -3.0884046774700913e-02 0.0000000000000000e+00 -3.0884046774700913e-02 3.2398563075442699e-02 0.0000000000000000e+00 0.0000000000000000e+00 0.0000000000000000e+00 0.0000000000000000e+00  1.2074453012302391e+00 -3.2273161176915047e-02 0.0000000000000000e+00 -3.2273161176915047e-02 3.2226822056292848e-02 0.0000000000000000e+00 0.0000000000000000e+00 0.0000000000000000e+00 0.0000000000000000e+00  1.2058042051348266e+00 -3.3595041861826574e-02 0.0000000000000000e+00 -3.3595041861826568e-02 3.2013795372161431e-02 0.0000000000000000e+00 0.0000000000000000e+00 0.0000000000000000e+00 0.0000000000000000e+00  1.2040739886243930e+00 -3.4862154917434246e-02 0.0000000000000000e+00 -3.4862154917434246e-02 3.1837529147524045e-02 0.0000000000000000e+00 0.0000000000000000e+00 0.0000000000000000e+00 0.0000000000000000e+00  1.2021079350059751e+00 -3.6265307683085772e-02 0.0000000000000000e+00 -3.6265307683085772e-02 3.1571180539651529e-02 0.0000000000000000e+00 0.0000000000000000e+00 0.0000000000000000e+00 0.0000000000000000e+00  1.2004255236110508e+00 -3.7498473138907432e-02 0.0000000000000000e+00 -3.7498473138907432e-02 3.1446322342271120e-02 0.0000000000000000e+00 0.0000000000000000e+00 0.0000000000000000e+00 0.0000000000000000e+00  1.1984230900721540e+00 -3.8825381291185637e-02 0.0000000000000000e+00 -3.8825381291185637e-02 3.1245089768579908e-02 0.0000000000000000e+00 0.0000000000000000e+00 0.0000000000000000e+00 0.0000000000000000e+00  1.1966001043732994e+00 -4.0055007563133849e-02 0.0000000000000000e+00 -4.0055007563133856e-02 3.1083038358844708e-02 0.0000000000000000e+00 0.0000000000000000e+00 0.0000000000000000e+00 0.0000000000000000e+00  1.1944427522782632e+00 -4.1429486891902741e-02 0.0000000000000000e+00 -4.1429486891902741e-02 3.0883827144210733e-02 0.0000000000000000e+00 0.0000000000000000e+00 0.0000000000000000e+00 0.0000000000000000e+00  1.1922578597136719e+00 -4.2723821837040550e-02 0.0000000000000000e+00 -4.2723821837040536e-02 3.0626333541250612e-02 0.0000000000000000e+00 0.0000000000000000e+00 0.0000000000000000e+00 0.0000000000000000e+00  1.1901960375643630e+00 -4.3981015927407108e-02 0.0000000000000000e+00 -4.3981015927407108e-02 3.0462692464633293e-02 0.0000000000000000e+00 0.0000000000000000e+00 0.0000000000000000e+00 0.0000000000000000e+00  1.1878094046042116e+00 -4.5258379762723691e-02 0.0000000000000000e+00 -4.5258379762723698e-02 3.0167869562562663e-02 0.0000000000000000e+00 0.0000000000000000e+00 0.0000000000000000e+00 0.0000000000000000e+00  1.1855331344516584e+00 -4.6449764395873512e-02 0.0000000000000000e+00 -4.6449764395873512e-02 2.9841900899447361e-02 0.0000000000000000e+00 0.0000000000000000e+00 0.0000000000000000e+00 0.0000000000000000e+00  1.1830862720435877e+00 -4.7705824713010034e-02 0.0000000000000000e+00 -4.7705824713010034e-02 2.9602400010115316e-02 0.0000000000000000e+00 0.0000000000000000e+00 0.0000000000000000e+00 0.0000000000000000e+00  1.1806336192224138e+00 -4.8849457915571527e-02 0.0000000000000000e+00 -4.8849457915571541e-02 2.9241544066243127e-02 0.0000000000000000e+00 0.0000000000000000e+00 0.0000000000000000e+00 0.0000000000000000e+00  1.1781765620705644e+00 -5.0046482905943275e-02 0.0000000000000000e+00 -5.0046482905943275e-02 2.9027008396015085e-02 0.0000000000000000e+00 0.0000000000000000e+00 0.0000000000000000e+00 0.0000000000000000e+00  1.1754531907184436e+00 -5.1207296726141958e-02 0.0000000000000000e+00 -5.1207296726141958e-02 2.8658772004101385e-02 0.0000000000000000e+00 0.0000000000000000e+00 0.0000000000000000e+00 0.0000000000000000e+00  1.1730216077707902e+00 -5.2286658294255009e-02 0.0000000000000000e+00 -5.2286658294255009e-02 2.8454678868584771e-02 0.0000000000000000e+00 0.0000000000000000e+00 0.0000000000000000e+00 0.0000000000000000e+00  1.1701460167291862e+00 -5.3424785484736254e-02 0.0000000000000000e+00 -5.3424785484736254e-02 2.8113716800867543e-02 0.0000000000000000e+00 0.0000000000000000e+00 0.0000000000000000e+00 0.0000000000000000e+00  1.1675043974120913e+00 -5.4467773472728347e-02 0.0000000000000000e+00 -5.4467773472728347e-02 2.7719951902187078e-02 0.0000000000000000e+00 0.0000000000000000e+00 0.0000000000000000e+00 0.0000000000000000e+00  1.1646622438265148e+00 -5.5582145657256062e-02 0.0000000000000000e+00 -5.5582145657256062e-02 2.7498695936953154e-02 0.0000000000000000e+00 0.0000000000000000e+00 0.0000000000000000e+00 0.0000000000000000e+00  1.1617723714834156e+00 -5.6651706418658410e-02 0.0000000000000000e+00 -5.6651706418658410e-02 2.7085722894196279e-02 0.0000000000000000e+00 0.0000000000000000e+00 0.0000000000000000e+00 0.0000000000000000e+00  1.1589900529313306e+00 -5.7661995255732255e-02 0.0000000000000000e+00 -5.7661995255732255e-02 2.6850365185537461e-02 0.0000000000000000e+00 0.0000000000000000e+00 0.0000000000000000e+00 0.0000000000000000e+00  1.1558523827494676e+00 -5.8728713726134946e-02 0.0000000000000000e+00 -5.8728713726134946e-02 2.6425334508601000e-02 0.0000000000000000e+00 0.0000000000000000e+00 0.0000000000000000e+00 0.0000000000000000e+00  1.1530634257904504e+00 -5.9678631363892988e-02 0.0000000000000000e+00 -5.9678631363892988e-02 2.6176010096993860e-02 0.0000000000000000e+00 0.0000000000000000e+00 0.0000000000000000e+00 0.0000000000000000e+00  1.1498208680308810e+00 -6.0720124287414565e-02 0.0000000000000000e+00 -6.0720124287414565e-02 2.5791603275413976e-02 0.0000000000000000e+00 0.0000000000000000e+00 0.0000000000000000e+00 0.0000000000000000e+00  1.1468152802581824e+00 -6.1696554960662203e-02 0.0000000000000000e+00 -6.1696554960662203e-02 2.5392023091953365e-02 0.0000000000000000e+00 0.0000000000000000e+00 0.0000000000000000e+00 0.0000000000000000e+00  1.1435350381251199e+00 -6.2641658699656794e-02 0.0000000000000000e+00 -6.2641658699656794e-02 2.4976018396772971e-02 0.0000000000000000e+00 0.0000000000000000e+00 0.0000000000000000e+00 0.0000000000000000e+00  1.1402246925823780e+00 -6.3541728221741034e-02 0.0000000000000000e+00 -6.3541728221741034e-02 2.4511820581660126e-02 0.0000000000000000e+00 0.0000000000000000e+00 0.0000000000000000e+00 0.0000000000000000e+00  1.1371968178412002e+00 -6.4413028182140009e-02 0.0000000000000000e+00 -6.4413028182140009e-02 2.4254414166681941e-02 0.0000000000000000e+00 0.0000000000000000e+00 0.0000000000000000e+00 0.0000000000000000e+00  1.1336627718504280e+00 -6.5385946202512965e-02 0.0000000000000000e+00 -6.5385946202512965e-02 2.3797153322554016e-02 0.0000000000000000e+00 0.0000000000000000e+00 0.0000000000000000e+00 0.0000000000000000e+00  1.1304799177086784e+00 -6.6203604828009105e-02 0.0000000000000000e+00 -6.6203604828009105e-02 2.3427856594038520e-02 0.0000000000000000e+00 0.0000000000000000e+00 0.0000000000000000e+00 0.0000000000000000e+00  1.1268342381594769e+00 -6.7064983459557456e-02 0.0000000000000000e+00 -6.7064983459557456e-02 2.2933019029725110e-02 0.0000000000000000e+00 0.0000000000000000e+00 0.0000000000000000e+00 0.0000000000000000e+00  1.1235755877832012e+00 -6.7906180515145867e-02 0.0000000000000000e+00 -6.7906180515145867e-02 2.2552909435402047e-02 0.0000000000000000e+00 0.0000000000000000e+00 0.0000000000000000e+00 0.0000000000000000e+00  1.1200653344207936e+00 -6.8666785554898024e-02 0.0000000000000000e+00 -6.8666785554898024e-02 2.2079455166627092e-02 0.0000000000000000e+00 0.0000000000000000e+00 0.0000000000000000e+00 0.0000000000000000e+00  1.1162897353166286e+00 -6.9442979311785669e-02 0.0000000000000000e+00 -6.9442979311785669e-02 2.1623036259702012e-02 0.0000000000000000e+00 0.0000000000000000e+00 0.0000000000000000e+00 0.0000000000000000e+00  1.1129763932231824e+00 -7.0197306902674603e-02 0.0000000000000000e+00 -7.0197306902674603e-02 2.1234747851979149e-02 0.0000000000000000e+00 0.0000000000000000e+00 0.0000000000000000e+00 0.0000000000000000e+00  1.1090455946623932e+00 -7.0981396816033077e-02 0.0000000000000000e+00 -7.0981396816033077e-02 2.0687699998244338e-02 0.0000000000000000e+00 0.0000000000000000e+00 0.0000000000000000e+00 0.0000000000000000e+00  1.1055277901181457e+00 -7.1632812988174074e-02 0.0000000000000000e+00 -7.1632812988174074e-02 2.0180590393951973e-02 0.0000000000000000e+00 0.0000000000000000e+00 0.0000000000000000e+00 0.0000000000000000e+00  1.1016640763498144e+00 -7.2354339091844522e-02 0.0000000000000000e+00 -7.2354339091844522e-02 1.9677027662083891e-02 0.0000000000000000e+00 0.0000000000000000e+00 0.0000000000000000e+00 0.0000000000000000e+00  1.0978970665391514e+00 -7.2987648966992724e-02 0.0000000000000000e+00 -7.2987648966992724e-02 1.9125271028211467e-02 0.0000000000000000e+00 0.0000000000000000e+00 0.0000000000000000e+00 0.0000000000000000e+00  1.0941854575139267e+00 -7.3583040656943655e-02 0.0000000000000000e+00 -7.3583040656943655e-02 1.8636684820306226e-02 0.0000000000000000e+00 0.0000000000000000e+00 0.0000000000000000e+00 0.0000000000000000e+00  1.0902176339845084e+00 -7.4155178932355362e-02 0.0000000000000000e+00 -7.4155178932355389e-02 1.8125846204997017e-02 0.0000000000000000e+00 0.0000000000000000e+00 0.0000000000000000e+00 0.0000000000000000e+00  1.0866307277783620e+00 -7.4715702980551149e-02 0.0000000000000000e+00 -7.4715702980551135e-02 1.7631468473904871e-02 0.0000000000000000e+00 0.0000000000000000e+00 0.0000000000000000e+00 0.0000000000000000e+00  1.0824888374970338e+00 -7.5256916939646437e-02 0.0000000000000000e+00 -7.5256916939646437e-02 1.7077723872343600e-02 0.0000000000000000e+00 0.0000000000000000e+00 0.0000000000000000e+00 0.0000000000000000e+00  1.0787216885366713e+00 -7.5734414084160373e-02 0.0000000000000000e+00 -7.5734414084160373e-02 1.6540232383754575e-02 0.0000000000000000e+00 0.0000000000000000e+00 0.0000000000000000e+00 0.0000000000000000e+00  1.0747169410597077e+00 -7.6270302408033772e-02 0.0000000000000000e+00 -7.6270302408033772e-02 1.6011932802933348e-02 0.0000000000000000e+00 0.0000000000000000e+00 0.0000000000000000e+00 0.0000000000000000e+00  1.0706691749015418e+00 -7.6708659222597286e-02 0.0000000000000000e+00 -7.6708659222597286e-02 1.5458128663934907e-02 0.0000000000000000e+00 0.0000000000000000e+00 0.0000000000000000e+00 0.0000000000000000e+00  1.0668783169600793e+00 -7.7138729930575675e-02 0.0000000000000000e+00 -7.7138729930575675e-02 1.4975475787149918e-02 0.0000000000000000e+00 0.0000000000000000e+00 0.0000000000000000e+00 0.0000000000000000e+00  1.0626602955555546e+00 -7.7606579186144359e-02 0.0000000000000000e+00 -7.7606579186144359e-02 1.4410940929555317e-02 0.0000000000000000e+00 0.0000000000000000e+00 0.0000000000000000e+00 0.0000000000000000e+00  1.0588251445458394e+00 -7.7982933273098742e-02 0.0000000000000000e+00 -7.7982933273098742e-02 1.3871088114359780e-02 0.0000000000000000e+00 0.0000000000000000e+00 0.0000000000000000e+00 0.0000000000000000e+00  1.0545627116365222e+00 -7.8393902883869770e-02 0.0000000000000000e+00 -7.8393902883869770e-02 1.3249439643961485e-02 0.0000000000000000e+00 0.0000000000000000e+00 0.0000000000000000e+00 0.0000000000000000e+00  1.0505362999340351e+00 -7.8775128800351368e-02 0.0000000000000000e+00 -7.8775128800351368e-02 1.2657791664254884e-02 0.0000000000000000e+00 0.0000000000000000e+00 0.0000000000000000e+00 0.0000000000000000e+00  1.0464057859099554e+00 -7.9038280962656929e-02 0.0000000000000000e+00 -7.9038280962656943e-02 1.2019351167390233e-02 0.0000000000000000e+00 0.0000000000000000e+00 0.0000000000000000e+00 0.0000000000000000e+00  1.0421322203384826e+00 -7.9294407257292504e-02 0.0000000000000000e+00 -7.9294407257292504e-02 1.1391393040045907e-02 0.0000000000000000e+00 0.0000000000000000e+00 0.0000000000000000e+00 0.0000000000000000e+00  1.0382622627840452e+00 -7.9548149510495339e-02 0.0000000000000000e+00 -7.9548149510495339e-02 1.0869514077200640e-02 0.0000000000000000e+00 0.0000000000000000e+00 0.0000000000000000e+00 0.0000000000000000e+00  1.0338048669988822e+00 -7.9837380014937384e-02 0.0000000000000000e+00 -7.9837380014937384e-02 1.0206239415759641e-02 0.0000000000000000e+00 0.0000000000000000e+00 0.0000000000000000e+00 0.0000000000000000e+00  1.0298369404198706e+00 -8.0071526419474598e-02 0.0000000000000000e+00 -8.0071526419474598e-02 9.6324420379585492e-03 0.0000000000000000e+00 0.0000000000000000e+00 0.0000000000000000e+00 0.0000000000000000e+00  1.0254499370558237e+00 -8.0194644992293715e-02 0.0000000000000000e+00 -8.0194644992293715e-02 8.9877814845172044e-03 0.0000000000000000e+00 0.0000000000000000e+00 0.0000000000000000e+00 0.0000000000000000e+00  1.0212574937275352e+00 -8.0383177769605449e-02 0.0000000000000000e+00 -8.0383177769605449e-02 8.3704539911510552e-03 0.0000000000000000e+00 0.0000000000000000e+00 0.0000000000000000e+00 0.0000000000000000e+00  1.0171091566870458e+00 -8.0535158035470247e-02 0.0000000000000000e+00 -8.0535158035470233e-02 7.7052834462465010e-03 0.0000000000000000e+00 0.0000000000000000e+00 0.0000000000000000e+00 0.0000000000000000e+00  1.0126047156477218e+00 -8.0700045978586030e-02 0.0000000000000000e+00 -8.0700045978586071e-02 6.9972607097789343e-03 0.0000000000000000e+00 0.0000000000000000e+00 0.0000000000000000e+00 0.0000000000000000e+00  1.0086523372145770e+00 -8.0759075108294165e-02 0.0000000000000000e+00 -8.0759075108294151e-02 6.3925740051351118e-03 0.0000000000000000e+00 0.0000000000000000e+00 0.0000000000000000e+00 0.0000000000000000e+00  1.0041606997699921e+00 -8.0861150749568636e-02 0.0000000000000000e+00 -8.0861150749568636e-02 5.6717017218107417e-03 0.0000000000000000e+00 0.0000000000000000e+00 0.0000000000000000e+00 0.0000000000000000e+00  1.0000758311911495e+00 -8.0834224398365309e-02 0.0000000000000000e+00 -8.0834224398365309e-02 5.0275604947837898e-03 0.0000000000000000e+00 0.0000000000000000e+00 0.0000000000000000e+00 0.0000000000000000e+00  9.9578819030556598e-01 -8.0766744845542471e-02 0.0000000000000000e+00 -8.0766744845542471e-02 4.3415074307249571e-03 0.0000000000000000e+00 0.0000000000000000e+00 0.0000000000000000e+00 0.0000000000000000e+00  9.9135072728685569e-01 -8.0767505684355853e-02 0.0000000000000000e+00 -8.0767505684355853e-02 3.6101722577625366e-03 0.0000000000000000e+00 0.0000000000000000e+00 0.0000000000000000e+00 0.0000000000000000e+00  9.8733879146079284e-01 -8.0643022208283871e-02 0.0000000000000000e+00 -8.0643022208283871e-02 2.9736400502102293e-03 0.0000000000000000e+00 0.0000000000000000e+00 0.0000000000000000e+00 0.0000000000000000e+00  9.8282130024501468e-01 -8.0511997216418385e-02 0.0000000000000000e+00 -8.0511997216418385e-02 2.1483430621530158e-03 0.0000000000000000e+00 0.0000000000000000e+00 0.0000000000000000e+00 0.0000000000000000e+00  9.7874730344664407e-01 -8.0434590608985446e-02 0.0000000000000000e+00 -8.0434590608985446e-02 1.5294046153911940e-03 0.0000000000000000e+00 0.0000000000000000e+00 0.0000000000000000e+00 0.0000000000000000e+00  9.7430844112224524e-01 -8.0230245530129071e-02 0.0000000000000000e+00 -8.0230245530129071e-02 8.0868561472806518e-04 0.0000000000000000e+0