<?xml version="1.0"?>
<VTKFile type="UnstructuredGrid"  version="0.1"  >
<UnstructuredGrid>
<Piece  NumberOfPoints="4258" NumberOfCells="6732">
<Points>
<DataArray  type="Float64"  NumberOfComponents="3"  format="ascii">0 0.01 0  10 0.01 0  0 1.015641236154565 0  10 1.015641236154565 0  0.007129524987038337 0.009997491741717768 0  0.01258064459049757 0.00999219056738478 0  0.01872173241756402 0.009982708334120727 0  0.02429919625640796 0.009970876572043954 0  0.03017238705920286 0.009955108531615313 0  0.03612352734296466 0.0099356743715591 0  0.04164979236492252 0.009914517792428084 0  0.04780928449023854 0.009887415768096998 0  0.05327287671237849 0.009860276931383746 0  0.0593436395885565 0.009826715421083503 0  0.06505608699933001 0.009791870631895848 0  0.07077243060783153 0.009753845329312128 0  0.07684085351634186 0.009710036052663748 0  0.08230528612367993 0.009667566921662384 0  0.08846525752759338 0.009616276826848907 0  0.09398926586603956 0.0095672187064786 0  0.09994377871281757 0.009511110804477986 0  0.10581288515308 0.009452550633355501 0  0.1113930001121819 0.009393893683773193 0  0.1175326299024069 0.009326020378011352 0  0.122983161250664 0.009262856809916281 0  0.1290978349347763 0.009188765415777931 0  0.1347300222736412 0.00911751981665075 0  0.1405327472005438 0.009041131768776852 0  0.1465421455697866 0.008958856277281909 0  0.1520341809431761 0.008880870879718691 0  0.1581991754706344 0.00879018143976357 0  0.1636834803794234 0.008706732874359017 0  0.1697073563005918 0.008612096527554045 0  0.1754901396361989 0.008518345936558386 0  0.1811391035120075 0.008424050210098115 0  0.1872444279222087 0.00831915423323064 0  0.1926961446341008 0.008222899998379215 0  0.198841090009393 0.008111516418624823 0  0.2044064770158165 0.008008028244452866 0  0.2102948627703611 0.007895869216798803 0  0.2162299794791283 0.007780085801116003 0  0.2217647046821167 0.007669675498109103 0  0.2279204403470532 0.007544154739747676 0  0.2333791472114919 0.007430485124751003 0  0.2394590817234977 0.0073013084386626 0  0.245152498789355 0.007177928079207972 0  0.2508861115607116 0.007051356111670669 0  0.2569419868439766 0.006915186417023598 0  0.2624099649457279 0.006790084113692359 0  0.2685711825796066 0.006646722567663751 0  0.274083748205357 0.006516341894728842 0  0.2800541704182985 0.00637292855786236 0  0.2859022845836161 0.006230279166502627 0  0.291495955429921 0.006091868246150131 0  0.2976275706217687 0.005937986548763313 0  0.3030757324287757 0.005799406374294222 0  0.3091980118239236 0.005641654227187252 0  0.3148109405089491 0.005495191514879527 0  0.3206341933715942 0.005341435282378838 0  0.3266248575896781 0.005181393525330103 0  0.3321252080346692 0.005032833254881577 0  0.3382880718234609 0.004864596209960478 0  0.3437628463580178 0.004713611578807419 0  0.3498021006600692 0.004545443593512952 0  0.3555594631656461 0.004383601001460968 0  0.3612291099056053 0.004222822711549606 0  0.3673210805066339 0.004048576418709386 0  0.3727746135437823 0.003891330909934085 0  0.3789246700786391 0.003712634483246944 0  0.3844721023230384 0.00355025746928806 0  0.3903845048135511 0.003376011435332509 0  0.3962935688476314 0.003200699755406988 0  0.4018430601204535 0.00303505085978487 0  0.4079921977692303 0.002850427660455144 0  0.4134449905916002 0.002685819499171436 0  0.4195385366679084 0.002500937932218923 0  0.425204482428441 0.002328206591247292 0  0.4309651825948974 0.00215183074136113 0  0.4370014133195289 0.001966263547608745 0  0.4424769325836848 0.00179732019881714 0  0.4486395183564056 0.001606544730410899 0  0.4541373275735043 0.001435838569361521 0  0.4601308451156257 0.001249254088784412 0  0.4659488863550298 0.001067707976620331 0  0.471564807260988 0.0008921302908496037 0  0.4776843759254726 0.0007004920228137959 0  0.4831317484445766 0.0005296836585198918 0  0.4892643513384632 0.0003372062279158936 0  0.4948528283485032 0.000161696161435303 0  0.5007056813361916 -2.216943068070812e-05 0  0.5066699093509902 -0.000209526046556915 0  0.5121845298566023 -0.0003826949545447442 0  0.5183439831944545 -0.0005759742926309219 0  0.5238088617282698 -0.0007472800272428554 0  0.5298681543527348 -0.0009369594486414562 0  0.5355929349139432 -0.001115856450691032 0  0.5412927239341832 -0.001293613669039852 0  0.5473668732672543 -0.001482588207084091 0  0.5528259073001393 -0.001651967505962102 0  0.5589819336317072 -0.001842386787779294 0  0.5645100189486582 -0.002012797049529044 0  0.5704524332663232 -0.002195301346534757 0  0.5763298911552834 -0.002375058665203144 0  0.5819006708717119 -0.002544689651648297 0  0.5880413281562127 -0.002730768313747055 0  0.5934904284812221 -0.002895042191696308 0  0.5995995320960693 -0.003078202338538874 0  0.605236779888003 -0.003246210954182579 0  0.6110299855290301 -0.003417806240976177 0  0.6170432999212266 -0.00359472323302265 0  0.6225307972792151 -0.00375505261922207 0  0.6286944373476531 -0.003933803567825084 0  0.6341794289295242 -0.004091634709336539 0  0.6401977648984302 -0.004263413669385436 0  0.6459846030577213 -0.004427148756161272 0  0.6516277670629291 -0.004585409549508515 0  0.6577342305863492 -0.004755038487876419 0  0.6631843111407589 -0.004904958327357115 0  0.6693271588517591 -0.005072208653571043 0  0.6748942591145469 -0.005222152905474348 0  0.6807781354428797 -0.005378892074409919 0  0.6867158102497221 -0.005535201343768038 0  0.6922478556369909 -0.005679100421160843 0  0.6984036264198542 -0.005837205328254034 0  0.7038624132928571 -0.005975584427524931 0  0.7099402809449575 -0.006127588021236129 0  0.7156361945945205 -0.006268012368771779 0  0.7213667017809595 -0.006407263887957157 0  0.7274241898103784 -0.006552202568912044 0  0.7328913375361901 -0.006680980644346233 0  0.7390522654079078 -0.006823736587757829 0  0.7445663161830813 -0.006949337256267011 0  0.7505345306161221 -0.007082931996795786 0  0.7563856967966242 -0.007211490056377221 0  0.7619775509571868 -0.007332073958440476 0  0.7681106054434813 -0.007461725199742056 0  0.7735594228940573 -0.007574589702563127 0  0.7796809699364847 -0.007698739982391196 0  0.7852974086111042 -0.007810142587226769 0  0.7911178568436495 -0.007923025648348906 0  0.797112403703894 -0.008036515862006795 0  0.8026119630288198 -0.008138129173272899 0  0.8087760180262171 -0.008249131188213875 0  0.814253500572072 -0.008345174877796967 0  0.8202905515677629 -0.008448166667805387 0  0.8260544286221699 -0.008543663134562481 0  0.831720415905675 -0.008634807324656511 0  0.8378167080097026 -0.008729817306667463 0  0.8432709709919499 -0.008812108559864256 0  0.8494209576248264 -0.008901791974276371 0  0.8549745826348545 -0.008979924427376591 0  0.8608814329347291 -0.009060026011188804 0  0.8667998142885592 -0.009137155111096256 0  0.8723460990452367 -0.009206568509458774 0  0.8784989383774584 -0.009280301817794542 0  0.8839552890388401 -0.009342788637451834 0  0.8900456692707091 -0.009409293585850673 0  0.8957233874467343 -0.009468190513990782 0  0.9014754209053449 -0.009524786393944277 0  0.9075213579987256 -0.009580921173179099 0  0.9129954731058688 -0.009628765913494807 0  0.9191593188847452 -0.009679229788646495 0  0.9246655330424429 -0.009721240864333262 0  0.9306503084472221 -0.009763603884533442 0  0.9364847200361547 -0.009801580348484516 0  0.9420914259676206 -0.009834972127394636 0  0.948219177636862 -0.009867976960504428 0  0.9536688877131657 -0.009894257783109666 0  0.9597979104438458 -0.009920349306153329 0  0.9654020314719589 -0.009940987600901847 0  0.9712398170272581 -0.009959209624459757 0  0.9772219132298864 -0.009974407121723252 0  0.9827297975109929 -0.009985285083248089 0  0.9888934840407251 -0.009993913310034224 0  0.9943667421923366 -0.009998434045983932 0  1.000414962337846 -0.009999991502249178 0  1.00616395254491 -0.009998125110441144 0  1.011844857354635 -0.009993077234903055 0  1.017933801412069 -0.009984132829796667 0  1.023390946643176 -0.00997301205183276 0  1.029544679732296 -0.009956955598792184 0  1.035089558108845 -0.009939300412459717 0  1.041010936359372 -0.009917116481575694 0  1.04691554237944 -0.00989157814857561 0  1.052471258615448 -0.009864440751261633 0  1.05862104751389 -0.009830897850136421 0  1.064075481579663 -0.009798076706746352 0  1.070173358231585 -0.009757978136698224 0  1.075837941143087 -0.00971752009646258 0  1.081604377355612 -0.009673173917302162 0  1.087640686528322 -0.009623351755525641 0  1.093119387704205 -0.009575135453199036 0  1.099284093826516 -0.009517491101966447 0  1.104783734376909 -0.009463052176492596 0  1.110779897618174 -0.009400480030121557 0  1.116599992234411 -0.00933655469875222 0  1.122217899723542 -0.009271889359757672 0  1.128339818747432 -0.009198135031144493 0  1.133789446190431 -0.00912961705214143 0  1.139923317158062 -0.009049295973540348 0  1.145515844317945 -0.008973134373133167 0  1.151367773813766 -0.008890475161473248 0  1.157336906671575 -0.008803064948780913 0  1.16285160438384 -0.008719557366803981 0  1.16901331600552 -0.008623157866544266 0  1.174481522907442 -0.00853490108265173 0  1.180539122189597 -0.008434191931863186 0  1.186271617394136 -0.008336073959344166 0  1.191966996821913 -0.008235914041393521 0  1.198046448076202 -0.008126091334838595 0  1.203505695906331 -0.008024945109277802 0  1.209661806077474 -0.007908057515838151 0  1.21519584913737 -0.007800455577732041 0  1.221132109188887 -0.00768241304184519 0  1.227019087412133 -0.007562711583992629 0  1.232585135446325 -0.007447155722966398 0  1.238729389023077 -0.007316953404904543 0  1.244180486899644 -0.007199156086382225 0  1.250286093435722 -0.007064709646262071 0  1.255932842016573 -0.006938052500145445 0  1.261716857103797 -0.006806053534187844 0  1.26773845151126 -0.006666245775332091 0  1.273222687278595 -0.006536836953056475 0  1.279386853652711 -0.00638906998029936 0  1.284876650734994 -0.006255450389977176 0  1.290887326898431 -0.00610702037198264 0  1.296685536664392 -0.00596177282270944 0  1.30231949087952 -0.005818744638503708 0  1.308431215520824
[...]
<PointData  Tensors="Total Stress"> 
<DataArray  type="Float64"  Name="Total Stress"  NumberOfComponents="9" format="ascii">1.2269479290035832e+00 -1.9136425963894106e-05 0.0000000000000000e+00 -1.9136425963894112e-05 3.5547164197427754e-02 0.0000000000000000e+00 0.0000000000000000e+00 0.0000000000000000e+00 0.0000000000000000e+00  1.2269479290035832e+00 -1.9136425963894106e-05 0.0000000000000000e+00 -1.9136425963894112e-05 3.5547164197427754e-02 0.0000000000000000e+00 0.0000000000000000e+00 0.0000000000000000e+00 0.0000000000000000e+00  8.4943207648140862e-01 3.9300365028083681e-05 0.0000000000000000e+00 3.9300365028083681e-05 -3.6695624582398149e-03 0.0000000000000000e+00 0.0000000000000000e+00 0.0000000000000000e+00 0.0000000000000000e+00  8.4943207648140862e-01 3.9300365028083681e-05 0.0000000000000000e+00 3.9300365028083681e-05 -3.6695624582398149e-03 0.0000000000000000e+00 0.0000000000000000e+00 0.0000000000000000e+00 0.0000000000000000e+00  1.2268964973622831e+00 -1.8965482787743986e-03 0.0000000000000000e+00 -1.8965482787743986e-03 3.5319793355109604e-02 0.0000000000000000e+00 0.0000000000000000e+00 0.0000000000000000e+00 0.0000000000000000e+00  1.2267367221671373e+00 -3.3383485427220341e-03 0.0000000000000000e+00 -3.3383485427220341e-03 3.5361497559921962e-02 0.0000000000000000e+00 0.0000000000000000e+00 0.0000000000000000e+00 0.0000000000000000e+00  1.2266452329256081e+00 -4.8884588086937622e-03 0.0000000000000000e+00 -4.8884588086937622e-03 3.5463460262706470e-02 0.0000000000000000e+00 0.0000000000000000e+00 0.0000000000000000e+00 0.0000000000000000e+00  1.2262666047979007e+00 -6.3421583244065429e-03 0.0000000000000000e+00 -6.3421583244065429e-03 3.5236884509942966e-02 0.0000000000000000e+00 0.0000000000000000e+00 0.0000000000000000e+00 0.0000000000000000e+00  1.2258810808533211e+00 -7.8871623771462653e-03 0.0000000000000000e+00 -7.8871623771462653e-03 3.5366737204489518e-02 0.0000000000000000e+00 0.0000000000000000e+00 0.0000000000000000e+00 0.0000000000000000e+00  1.2254400745460041e+00 -9.4149471357665594e-03 0.0000000000000000e+00 -9.4149471357665594e-03 3.5185120889895491e-02 0.0000000000000000e+00 0.0000000000000000e+00 0.0000000000000000e+00 0.0000000000000000e+00  1.2249857308874126e+00 -1.0850962410448974e-02 0.0000000000000000e+00 -1.0850962410448976e-02 3.5219205231599125e-02 0.0000000000000000e+00 0.0000000000000000e+00 0.0000000000000000e+00 0.0000000000000000e+00  1.2243291027846082e+00 -1.2453187691395617e-02 0.0000000000000000e+00 -1.2453187691395617e-02 3.5096423552018509e-02 0.0000000000000000e+00 0.0000000000000000e+00 0.0000000000000000e+00 0.0000000000000000e+00  1.2236872112377826e+00 -1.3872938048495700e-02 0.0000000000000000e+00 -1.3872938048495695e-02 3.4990532104313937e-02 0.0000000000000000e+00 0.0000000000000000e+00 0.0000000000000000e+00 0.0000000000000000e+00  1.2229021297943719e+00 -1.5421024887682853e-02 0.0000000000000000e+00 -1.5421024887682854e-02 3.4863862309331611e-02 0.0000000000000000e+00 0.0000000000000000e+00 0.0000000000000000e+00 0.0000000000000000e+00  1.2220542914248398e+00 -1.6884829040230379e-02 0.0000000000000000e+00 -1.6884829040230379e-02 3.4729943967504444e-02 0.0000000000000000e+00 0.0000000000000000e+00 0.0000000000000000e+00 0.0000000000000000e+00  1.2211757096568379e+00 -1.8298148839945235e-02 0.0000000000000000e+00 -1.8298148839945235e-02 3.4590592306173396e-02 0.0000000000000000e+00 0.0000000000000000e+00 0.0000000000000000e+00 0.0000000000000000e+00  1.2201887453957110e+00 -1.9794457259583391e-02 0.0000000000000000e+00 -1.9794457259583391e-02 3.4513344167089503e-02 0.0000000000000000e+00 0.0000000000000000e+00 0.0000000000000000e+00 0.0000000000000000e+00  1.2190565980376111e+00 -2.1192028491875330e-02 0.0000000000000000e+00 -2.1192028491875330e-02 3.4223651522961120e-02 0.0000000000000000e+00 0.0000000000000000e+00 0.0000000000000000e+00 0.0000000000000000e+00  1.2180682467419903e+00 -2.2649842024468351e-02 0.0000000000000000e+00 -2.2649842024468351e-02 3.4275732384237249e-02 0.0000000000000000e+00 0.0000000000000000e+00 0.0000000000000000e+00 0.0000000000000000e+00  1.2167506064792302e+00 -2.4032883189474299e-02 0.0000000000000000e+00 -2.4032883189474299e-02 3.3966425561786799e-02 0.0000000000000000e+00 0.0000000000000000e+00 0.0000000000000000e+00 0.0000000000000000e+00  1.2157022502353794e+00 -2.5434127944483197e-02 0.0000000000000000e+00 -2.5434127944483197e-02 3.3971573261274896e-02 0.0000000000000000e+00 0.0000000000000000e+00 0.0000000000000000e+00 0.0000000000000000e+00  1.2142634218992081e+00 -2.6842413423971732e-02 0.0000000000000000e+00 -2.6842413423971732e-02 3.3755628408663377e-02 0.0000000000000000e+00 0.0000000000000000e+00 0.0000000000000000e+00 0.0000000000000000e+00  1.2131037044064126e+00 -2.8191046957846189e-02 0.0000000000000000e+00 -2.8191046957846189e-02 3.3769784652398209e-02 0.0000000000000000e+00 0.0000000000000000e+00 0.0000000000000000e+00 0.0000000000000000e+00  1.2116050956714386e+00 -2.9714818498969807e-02 0.0000000000000000e+00 -2.9714818498969807e-02 3.3626973396523624e-02 0.0000000000000000e+00 0.0000000000000000e+00 0.0000000000000000e+00 0.0000000000000000e+00  1.2100919274192925e+00 -3.1056405636600184e-02 0.0000000000000000e+00 -3.1056405636600184e-02 3.3375573486495051e-02 0.0000000000000000e+00 0.0000000000000000e+00 0.0000000000000000e+00 0.0000000000000000e+00  1.2085075609797777e+00 -3.2502379905194473e-02 0.0000000000000000e+00 -3.2502379905194473e-02 3.3372252301033620e-02 0.0000000000000000e+00 0.0000000000000000e+00 0.0000000000000000e+00 0.0000000000000000e+00  1.2066800386074221e+00 -3.3875636559923976e-02 0.0000000000000000e+00 -3.3875636559923976e-02 3.3001438345033079e-02 0.0000000000000000e+00 0.0000000000000000e+00 0.0000000000000000e+00 0.0000000000000000e+00  1.2050224448176652e+00 -3.5222430255948241e-02 0.0000000000000000e+00 -3.5222430255948241e-02 3.2903379768201672e-02 0.0000000000000000e+00 0.0000000000000000e+00 0.0000000000000000e+00 0.0000000000000000e+00  1.2030500855608626e+00 -3.6631797429025975e-02 0.0000000000000000e+00 -3.6631797429025989e-02 3.2679338017522166e-02 0.0000000000000000e+00 0.0000000000000000e+00 0.0000000000000000e+00 0.0000000000000000e+00  1.2013214373357650e+00 -3.7926754842942279e-02 0.0000000000000000e+00 -3.7926754842942279e-02 3.2508263003659221e-02 0.0000000000000000e+00 0.0000000000000000e+00 0.0000000000000000e+00 0.0000000000000000e+00  1.1992534357696325e+00 -3.9282601135084916e-02 0.0000000000000000e+00 -3.9282601135084916e-02 3.2255134496529281e-02 0.0000000000000000e+00 0.0000000000000000e+00 0.0000000000000000e+00 0.0000000000000000e+00  1.1972825812391195e+00 -4.0543823418745233e-02 0.0000000000000000e+00 -4.0543823418745233e-02 3.1985617048359657e-02 0.0000000000000000e+00 0.0000000000000000e+00 0.0000000000000000e+00 0.0000000000000000e+00  1.1951404513691553e+00 -4.1910811793642741e-02 0.0000000000000000e+00 -4.1910811793642741e-02 3.1697070646446633e-02 0.0000000000000000e+00 0.0000000000000000e+00 0.0000000000000000e+00 0.0000000000000000e+00  1.1930030617924083e+00 -4.3146511663286209e-02 0.0000000000000000e+00 -4.3146511663286209e-02 3.1357201541101422e-02 0.0000000000000000e+00 0.0000000000000000e+00 0.0000000000000000e+00 0.0000000000000000e+00  1.1908824888601652e+00 -4.4390365725102549e-02 0.0000000000000000e+00 -4.4390365725102549e-02 3.1107534666093666e-02 0.0000000000000000e+00 0.0000000000000000e+00 0.0000000000000000e+00 0.0000000000000000e+00  1.1883441543422049e+00 -4.5655195065273463e-02 0.0000000000000000e+00 -4.5655195065273463e-02 3.0683174311718176e-02 0.0000000000000000e+00 0.0000000000000000e+00 0.0000000000000000e+00 0.0000000000000000e+00  1.1861912391144021e+00 -4.6783543715956277e-02 0.0000000000000000e+00 -4.6783543715956277e-02 3.0507086756111888e-02 0.0000000000000000e+00 0.0000000000000000e+00 0.0000000000000000e+00 0.0000000000000000e+00  1.1836422480470414e+00 -4.7982664966156413e-02 0.0000000000000000e+00 -4.7982664966156413e-02 3.0221720709777279e-02 0.0000000000000000e+00 0.0000000000000000e+00 0.0000000000000000e+00 0.0000000000000000e+00  1.1813275840734665e+00 -4.9137551557117902e-02 0.0000000000000000e+00 -4.9137551557117902e-02 2.9948422134853391e-02 0.0000000000000000e+00 0.0000000000000000e+00 0.0000000000000000e+00 0.0000000000000000e+00  1.1788246558944608e+00 -5.0318033411947065e-02 0.0000000000000000e+00 -5.0318033411947065e-02 2.9704273067081604e-02 0.0000000000000000e+00 0.0000000000000000e+00 0.0000000000000000e+00 0.0000000000000000e+00  1.1762029420774738e+00 -5.1484440137194012e-02 0.0000000000000000e+00 -5.1484440137194012e-02 2.9434211098885006e-02 0.0000000000000000e+00 0.0000000000000000e+00 0.0000000000000000e+00 0.0000000000000000e+00  1.1737106347345372e+00 -5.2575687856023158e-02 0.0000000000000000e+00 -5.2575687856023158e-02 2.9189905198760649e-02 0.0000000000000000e+00 0.0000000000000000e+00 0.0000000000000000e+00 0.0000000000000000e+00  1.1709011865503940e+00 -5.3845236316808598e-02 0.0000000000000000e+00 -5.3845236316808598e-02 2.8888343396741779e-02 0.0000000000000000e+00 0.0000000000000000e+00 0.0000000000000000e+00 0.0000000000000000e+00  1.1682560936653632e+00 -5.4864971255319778e-02 0.0000000000000000e+00 -5.4864971255319778e-02 2.8604623163128343e-02 0.0000000000000000e+00 0.0000000000000000e+00 0.0000000000000000e+00 0.0000000000000000e+00  1.1653445160953262e+00 -5.5958406366568673e-02 0.0000000000000000e+00 -5.5958406366568673e-02 2.8243029734819469e-02 0.0000000000000000e+00 0.0000000000000000e+00 0.0000000000000000e+00 0.0000000000000000e+00  1.1625461668363344e+00 -5.7081110751552949e-02 0.0000000000000000e+00 -5.7081110751552949e-02 2.7884473555318673e-02 0.0000000000000000e+00 0.0000000000000000e+00 0.0000000000000000e+00 0.0000000000000000e+00  1.1596096967219383e+00 -5.8159928388096679e-02 0.0000000000000000e+00 -5.8159928388096679e-02 2.7534288568504161e-02 0.0000000000000000e+00 0.0000000000000000e+00 0.0000000000000000e+00 0.0000000000000000e+00  1.1564809365268176e+00 -5.9138315916929023e-02 0.0000000000000000e+00 -5.9138315916929023e-02 2.7144593550600296e-02 0.0000000000000000e+00 0.0000000000000000e+00 0.0000000000000000e+00 0.0000000000000000e+00  1.1536187759677832e+00 -6.0107265677130532e-02 0.0000000000000000e+00 -6.0107265677130532e-02 2.6749531144144092e-02 0.0000000000000000e+00 0.0000000000000000e+00 0.0000000000000000e+00 0.0000000000000000e+00  1.1503998488441085e+00 -6.1125259203454491e-02 0.0000000000000000e+00 -6.1125259203454491e-02 2.6384719427066685e-02 0.0000000000000000e+00 0.0000000000000000e+00 0.0000000000000000e+00 0.0000000000000000e+00  1.1473489155654200e+00 -6.2176531238047741e-02 0.0000000000000000e+00 -6.2176531238047741e-02 2.5985266520050558e-02 0.0000000000000000e+00 0.0000000000000000e+00 0.0000000000000000e+00 0.0000000000000000e+00  1.1442633680185030e+00 -6.3042602485734109e-02 0.0000000000000000e+00 -6.3042602485734109e-02 2.5632043626497410e-02 0.0000000000000000e+00 0.0000000000000000e+00 0.0000000000000000e+00 0.0000000000000000e+00  1.1411081868986435e+00 -6.4011568816019632e-02 0.0000000000000000e+00 -6.4011568816019618e-02 2.5317189240005766e-02 0.0000000000000000e+00 0.0000000000000000e+00 0.0000000000000000e+00 0.0000000000000000e+00  1.1378803732556948e+00 -6.5005777348702234e-02 0.0000000000000000e+00 -6.5005777348702234e-02 2.4948720210379884e-02 0.0000000000000000e+00 0.0000000000000000e+00 0.0000000000000000e+00 0.0000000000000000e+00  1.1342480419776053e+00 -6.5929718595200457e-02 0.0000000000000000e+00 -6.5929718595200471e-02 2.4507584556198992e-02 0.0000000000000000e+00 0.0000000000000000e+00 0.0000000000000000e+00 0.0000000000000000e+00  1.1311398443037384e+00 -6.6810388269880630e-02 0.0000000000000000e+00 -6.6810388269880630e-02 2.4149195550929658e-02 0.0000000000000000e+00 0.0000000000000000e+00 0.0000000000000000e+00 0.0000000000000000e+00  1.1274998835428662e+00 -6.7720817380424972e-02 0.0000000000000000e+00 -6.7720817380424972e-02 2.3641195840496027e-02 0.0000000000000000e+00 0.0000000000000000e+00 0.0000000000000000e+00 0.0000000000000000e+00  1.1241001264080834e+00 -6.8491529647209240e-02 0.0000000000000000e+00 -6.8491529647209240e-02 2.3181464533043900e-02 0.0000000000000000e+00 0.0000000000000000e+00 0.0000000000000000e+00 0.0000000000000000e+00  1.1205688515585532e+00 -6.9260564011750056e-02 0.0000000000000000e+00 -6.9260564011750056e-02 2.2727701500352009e-02 0.0000000000000000e+00 0.0000000000000000e+00 0.0000000000000000e+00 0.0000000000000000e+00  1.1168530866357846e+00 -7.0109587349019398e-02 0.0000000000000000e+00 -7.0109587349019370e-02 2.2234957655504026e-02 0.0000000000000000e+00 0.0000000000000000e+00 0.0000000000000000e+00 0.0000000000000000e+00  1.1133761400338191e+00 -7.0812245765437390e-02 0.0000000000000000e+00 -7.0812245765437390e-02 2.1768712783416386e-02 0.0000000000000000e+00 0.0000000000000000e+00 0.0000000000000000e+00 0.0000000000000000e+00  1.1095152909004624e+00 -7.1583435397048589e-02 0.0000000000000000e+00 -7.1583435397048603e-02 2.1213992102985486e-02 0.0000000000000000e+00 0.0000000000000000e+00 0.0000000000000000e+00 0.0000000000000000e+00  1.1060002007087584e+00 -7.2317805936171764e-02 0.0000000000000000e+00 -7.2317805936171764e-02 2.0675275531367915e-02 0.0000000000000000e+00 0.0000000000000000e+00 0.0000000000000000e+00 0.0000000000000000e+00  1.1021390751043092e+00 -7.3020901588548001e-02 0.0000000000000000e+00 -7.3020901588548001e-02 2.0183406223943382e-02 0.0000000000000000e+00 0.0000000000000000e+00 0.0000000000000000e+00 0.0000000000000000e+00  1.0982737379638536e+00 -7.3654157801014697e-02 0.0000000000000000e+00 -7.3654157801014697e-02 1.9546033743888965e-02 0.0000000000000000e+00 0.0000000000000000e+00 0.0000000000000000e+00 0.0000000000000000e+00  1.0946110468569057e+00 -7.4217317367894622e-02 0.0000000000000000e+00 -7.4217317367894636e-02 1.9101939237646446e-02 0.0000000000000000e+00 0.0000000000000000e+00 0.0000000000000000e+00 0.0000000000000000e+00  1.0905400401583547e+00 -7.4829396432824186e-02 0.0000000000000000e+00 -7.4829396432824172e-02 1.8526826769874317e-02 0.0000000000000000e+00 0.0000000000000000e+00 0.0000000000000000e+00 0.0000000000000000e+00  1.0868536716713897e+00 -7.5426069553182803e-02 0.0000000000000000e+00 -7.5426069553182803e-02 1.7949640739875736e-02 0.0000000000000000e+00 0.0000000000000000e+00 0.0000000000000000e+00 0.0000000000000000e+00  1.0827184348502272e+00 -7.5976771769748014e-02 0.0000000000000000e+00 -7.5976771769748014e-02 1.7417303834198879e-02 0.0000000000000000e+00 0.0000000000000000e+00 0.0000000000000000e+00 0.0000000000000000e+00  1.0788871644159612e+00 -7.6428038617704544e-02 0.0000000000000000e+00 -7.6428038617704530e-02 1.6796195829273136e-02 0.0000000000000000e+00 0.0000000000000000e+00 0.0000000000000000e+00 0.0000000000000000e+00  1.0749396930068713e+00 -7.6907082503352694e-02 0.0000000000000000e+00 -7.6907082503352736e-02 1.6265039091054243e-02 0.0000000000000000e+00 0.0000000000000000e+00 0.0000000000000000e+00 0.0000000000000000e+00  1.0708552080392677e+00 -7.7402029849756943e-02 0.0000000000000000e+00 -7.7402029849756956e-02 1.5671340892043771e-02 0.0000000000000000e+00 0.0000000000000000e+00 0.0000000000000000e+00 0.0000000000000000e+00  1.0670258279809426e+00 -7.7810102951552926e-02 0.0000000000000000e+00 -7.7810102951552926e-02 1.5140872747539847e-02 0.0000000000000000e+00 0.0000000000000000e+00 0.0000000000000000e+00 0.0000000000000000e+00  1.0627635489585121e+00 -7.8209974468261362e-02 0.0000000000000000e+00 -7.8209974468261348e-02 1.4539978215247953e-02 0.0000000000000000e+00 0.0000000000000000e+00 0.0000000000000000e+00 0.0000000000000000e+00  1.0588937713857109e+00 -7.8609401101308804e-02 0.0000000000000000e+00 -7.8609401101308804e-02 1.3981371544191535e-02 0.0000000000000000e+00 0.0000000000000000e+00 0.0000000000000000e+00 0.0000000000000000e+00  1.0546692725881888e+00 -7.8963424030632501e-02 0.0000000000000000e+00 -7.8963424030632501e-02 1.3379245754332938e-02 0.0000000000000000e+00 0.0000000000000000e+00 0.0000000000000000e+00 0.0000000000000000e+00  1.0506516798143486e+00 -7.9284283581511017e-02 0.0000000000000000e+00 -7.9284283581511017e-02 1.2806617001859304e-02 0.0000000000000000e+00 0.0000000000000000e+00 0.0000000000000000e+00 0.0000000000000000e+00  1.0466347673579697e+00 -7.9611264907178902e-02 0.0000000000000000e+00 -7.9611264907178902e-02 1.2269125919979572e-02 0.0000000000000000e+00 0.0000000000000000e+00 0.0000000000000000e+00 0.0000000000000000e+00  1.0422731794011817e+00 -7.9931614078982000e-02 0.0000000000000000e+00 -7.9931614078982000e-02 1.1616955275522197e-02 0.0000000000000000e+00 0.0000000000000000e+00 0.0000000000000000e+00 0.0000000000000000e+00  1.0383292180268213e+00 -8.0186577902332315e-02 0.0000000000000000e+00 -8.0186577902332315e-02 1.1039294870878060e-02 0.0000000000000000e+00 0.0000000000000000e+00 0.0000000000000000e+00 0.0000000000000000e+00  1.0338669447632938e+00 -8.0471605301857499e-02 0.0000000000000000e+00 -8.0471605301857499e-02 1.0343837747079230e-02 0.0000000000000000e+00 0.0000000000000000e+00 0.0000000000000000e+00 0.0000000000000000e+00  1.0298528203536317e+00 -8.0662301026241140e-02 0.0000000000000000e+00 -8.0662301026241140e-02 9.7564325488946422e-03 0.0000000000000000e+00 0.0000000000000000e+00 0.0000000000000000e+00 0.0000000000000000e+00  1.0255196732904592e+00 -8.0883614877018395e-02 0.0000000000000000e+00 -8.0883614877018395e-02 9.0899999338631271e-03 0.0000000000000000e+00 0.0000000000000000e+00 0.0000000000000000e+00 0.0000000000000000e+00  1.0212939833856316e+00 -8.0989970352452811e-02 0.0000000000000000e+00 -8.0989970352452811e-02 8.4369159083324003e-03 0.0000000000000000e+00 0.0000000000000000e+00 0.0000000000000000e+00 0.0000000000000000e+00  1.0171857613037434e+00 -8.1101998759693261e-02 0.0000000000000000e+00 -8.1101998759693261e-02 7.8390765531728274e-03 0.0000000000000000e+00 0.0000000000000000e+00 0.0000000000000000e+00 0.0000000000000000e+00  1.0126808451598612e+00 -8.1150586276916820e-02 0.0000000000000000e+00 -8.1150586276916820e-02 7.1193226138821820e-03 0.0000000000000000e+00 0.0000000000000000e+00 0.0000000000000000e+00 0.0000000000000000e+00  1.0086460946020792e+00 -8.1233742532055661e-02 0.0000000000000000e+00 -8.1233742532055661e-02 6.5711914875734041e-03 0.0000000000000000e+00 0.0000000000000000e+00 0.0000000000000000e+00 0.0000000000000000e+00  1.0042326940493413e+00 -8.1311030328960684e-02 0.0000000000000000e+00 -8.1311030328960684e-02 5.8443913834051063e-03 0.0000000000000000e+00 0.0000000000000000e+00 0.0000000000000000e+00 0.0000000000000000e+00  1.0000917753873730e+00 -8.1336709932422868e-02 0.0000000000000000e+00 -8.1336709932422868e-02 5.2317488365835243e-03 0.0000000000000000e+00 0.0000000000000000e+00 0.0000000000000000e+00 0.0000000000000000e+00  9.9574624633186282e-01 -8.1254188742796746e-02 0.0000000000000000e+00 -8.1254188742796746e-02 4.5422956051420398e-03 0.0000000000000000e+00 0.0000000000000000e+00 0.0000000000000000e+00 0.0000000000000000e+00  9.9145799974545168e-01 -8.1235224411318446e-02 0.0000000000000000e+00 -8.1235224411318446e-02 3.9034847889831957e-03 0.0000000000000000e+00 0.0000000000000000e+00 0.0000000000000000e+00 0.0000000000000000e+00  9.8741062294585258e-01 -8.1229096234554432e-02 0.0000000000000000e+00 -8.1229096234554432e-02 3.2501623321016132e-03 0.0000000000000000e+00 0.0000000000000000e+00 0.0000000000000000e+00 0.0000000000000000e+00  9.8286600138688263e-01 -8.1203420801909065e-02 0.0000000000000000e+00 -8.1203420801909065e-02 2.4556755291869473e-03 0.0000000000000000e+00 0.0000000000000000e+00 0.0000000000000000e+00 0.0000000000000000e+00  9.7876987469480969e-01 -8.1058462495831748e-02 0.0000000000000000e+00 -8.1058462495831748e-02 1.7656672498757523e-03 0.0000000000000000e+00 0.0000000000000000e+00 0.0000000000000000e+00 0.0000000000000000e+00  9.7429479527033913e-01 -8.0912303727887366e-02 0.0000000000000000e+00 -8.0912303727887352e-02 1.0237724617720050e-03 0.0000000000000000e+0