<?xml version="1.0"?>
<VTKFile type="UnstructuredGrid"  version="0.1"  >
<UnstructuredGrid>
<Piece  NumberOfPoints="4281" NumberOfCells="6778">
<Points>
<DataArray  type="Float64"  NumberOfComponents="3"  format="ascii">0 0.01 0  10 0.01 0  0 1.023967135573201 0  10 1.023967135573201 0  0.007129524987038337 0.009997491741717768 0  0.01258064459049757 0.00999219056738478 0  0.01872173241756402 0.009982708334120727 0  0.02429919625640796 0.009970876572043954 0  0.03017238705920286 0.009955108531615313 0  0.03612352734296466 0.0099356743715591 0  0.04164979236492252 0.009914517792428084 0  0.04780928449023854 0.009887415768096998 0  0.05327287671237849 0.009860276931383746 0  0.0593436395885565 0.009826715421083503 0  0.06505608699933001 0.009791870631895848 0  0.07077243060783153 0.009753845329312128 0  0.07684085351634186 0.009710036052663748 0  0.08230528612367993 0.009667566921662384 0  0.08846525752759338 0.009616276826848907 0  0.09398926586603956 0.0095672187064786 0  0.09994377871281757 0.009511110804477986 0  0.10581288515308 0.009452550633355501 0  0.1113930001121819 0.009393893683773193 0  0.1175326299024069 0.009326020378011352 0  0.122983161250664 0.009262856809916281 0  0.1290978349347763 0.009188765415777931 0  0.1347300222736412 0.00911751981665075 0  0.1405327472005438 0.009041131768776852 0  0.1465421455697866 0.008958856277281909 0  0.1520341809431761 0.008880870879718691 0  0.1581991754706344 0.00879018143976357 0  0.1636834803794234 0.008706732874359017 0  0.1697073563005918 0.008612096527554045 0  0.1754901396361989 0.008518345936558386 0  0.1811391035120075 0.008424050210098115 0  0.1872444279222087 0.00831915423323064 0  0.1926961446341008 0.008222899998379215 0  0.198841090009393 0.008111516418624823 0  0.2044064770158165 0.008008028244452866 0  0.2102948627703611 0.007895869216798803 0  0.2162299794791283 0.007780085801116003 0  0.2217647046821167 0.007669675498109103 0  0.2279204403470532 0.007544154739747676 0  0.2333791472114919 0.007430485124751003 0  0.2394590817234977 0.0073013084386626 0  0.245152498789355 0.007177928079207972 0  0.2508861115607116 0.007051356111670669 0  0.2569419868439766 0.006915186417023598 0  0.2624099649457279 0.006790084113692359 0  0.2685711825796066 0.006646722567663751 0  0.274083748205357 0.006516341894728842 0  0.2800541704182985 0.00637292855786236 0  0.2859022845836161 0.006230279166502627 0  0.291495955429921 0.006091868246150131 0  0.2976275706217687 0.005937986548763313 0  0.3030757324287757 0.005799406374294222 0  0.3091980118239236 0.005641654227187252 0  0.3148109405089491 0.005495191514879527 0  0.3206341933715942 0.005341435282378838 0  0.3266248575896781 0.005181393525330103 0  0.3321252080346692 0.005032833254881577 0  0.3382880718234609 0.004864596209960478 0  0.3437628463580178 0.004713611578807419 0  0.3498021006600692 0.004545443593512952 0  0.3555594631656461 0.004383601001460968 0  0.3612291099056053 0.004222822711549606 0  0.3673210805066339 0.004048576418709386 0  0.3727746135437823 0.003891330909934085 0  0.3789246700786391 0.003712634483246944 0  0.3844721023230384 0.00355025746928806 0  0.3903845048135511 0.003376011435332509 0  0.3962935688476314 0.003200699755406988 0  0.4018430601204535 0.00303505085978487 0  0.4079921977692303 0.002850427660455144 0  0.4134449905916002 0.002685819499171436 0  0.4195385366679084 0.002500937932218923 0  0.425204482428441 0.002328206591247292 0  0.4309651825948974 0.00215183074136113 0  0.4370014133195289 0.001966263547608745 0  0.4424769325836848 0.00179732019881714 0  0.4486395183564056 0.001606544730410899 0  0.4541373275735043 0.001435838569361521 0  0.4601308451156257 0.001249254088784412 0  0.4659488863550298 0.001067707976620331 0  0.471564807260988 0.0008921302908496037 0  0.4776843759254726 0.0007004920228137959 0  0.4831317484445766 0.0005296836585198918 0  0.4892643513384632 0.0003372062279158936 0  0.4948528283485032 0.000161696161435303 0  0.5007056813361916 -2.216943068070812e-05 0  0.5066699093509902 -0.000209526046556915 0  0.5121845298566023 -0.0003826949545447442 0  0.5183439831944545 -0.0005759742926309219 0  0.5238088617282698 -0.0007472800272428554 0  0.5298681543527348 -0.0009369594486414562 0  0.5355929349139432 -0.001115856450691032 0  0.5412927239341832 -0.001293613669039852 0  0.5473668732672543 -0.001482588207084091 0  0.5528259073001393 -0.001651967505962102 0  0.5589819336317072 -0.001842386787779294 0  0.5645100189486582 -0.002012797049529044 0  0.5704524332663232 -0.002195301346534757 0  0.5763298911552834 -0.002375058665203144 0  0.5819006708717119 -0.002544689651648297 0  0.5880413281562127 -0.002730768313747055 0  0.5934904284812221 -0.002895042191696308 0  0.5995995320960693 -0.003078202338538874 0  0.605236779888003 -0.003246210954182579 0  0.6110299855290301 -0.003417806240976177 0  0.6170432999212266 -0.00359472323302265 0  0.6225307972792151 -0.00375505261922207 0  0.6286944373476531 -0.003933803567825084 0  0.6341794289295242 -0.004091634709336539 0  0.6401977648984302 -0.004263413669385436 0  0.6459846030577213 -0.004427148756161272 0  0.6516277670629291 -0.004585409549508515 0  0.6577342305863492 -0.004755038487876419 0  0.6631843111407589 -0.004904958327357115 0  0.6693271588517591 -0.005072208653571043 0  0.6748942591145469 -0.005222152905474348 0  0.6807781354428797 -0.005378892074409919 0  0.6867158102497221 -0.005535201343768038 0  0.6922478556369909 -0.005679100421160843 0  0.6984036264198542 -0.005837205328254034 0  0.7038624132928571 -0.005975584427524931 0  0.7099402809449575 -0.006127588021236129 0  0.7156361945945205 -0.006268012368771779 0  0.7213667017809595 -0.006407263887957157 0  0.7274241898103784 -0.006552202568912044 0  0.7328913375361901 -0.006680980644346233 0  0.7390522654079078 -0.006823736587757829 0  0.7445663161830813 -0.006949337256267011 0  0.7505345306161221 -0.007082931996795786 0  0.7563856967966242 -0.007211490056377221 0  0.7619775509571868 -0.007332073958440476 0  0.7681106054434813 -0.007461725199742056 0  0.7735594228940573 -0.007574589702563127 0  0.7796809699364847 -0.007698739982391196 0  0.7852974086111042 -0.007810142587226769 0  0.7911178568436495 -0.007923025648348906 0  0.797112403703894 -0.008036515862006795 0  0.8026119630288198 -0.008138129173272899 0  0.8087760180262171 -0.008249131188213875 0  0.814253500572072 -0.008345174877796967 0  0.8202905515677629 -0.008448166667805387 0  0.8260544286221699 -0.008543663134562481 0  0.831720415905675 -0.008634807324656511 0  0.8378167080097026 -0.008729817306667463 0  0.8432709709919499 -0.008812108559864256 0  0.8494209576248264 -0.008901791974276371 0  0.8549745826348545 -0.008979924427376591 0  0.8608814329347291 -0.009060026011188804 0  0.8667998142885592 -0.009137155111096256 0  0.8723460990452367 -0.009206568509458774 0  0.8784989383774584 -0.009280301817794542 0  0.8839552890388401 -0.009342788637451834 0  0.8900456692707091 -0.009409293585850673 0  0.8957233874467343 -0.009468190513990782 0  0.9014754209053449 -0.009524786393944277 0  0.9075213579987256 -0.009580921173179099 0  0.9129954731058688 -0.009628765913494807 0  0.9191593188847452 -0.009679229788646495 0  0.9246655330424429 -0.009721240864333262 0  0.9306503084472221 -0.009763603884533442 0  0.9364847200361547 -0.009801580348484516 0  0.9420914259676206 -0.009834972127394636 0  0.948219177636862 -0.009867976960504428 0  0.9536688877131657 -0.009894257783109666 0  0.9597979104438458 -0.009920349306153329 0  0.9654020314719589 -0.009940987600901847 0  0.9712398170272581 -0.009959209624459757 0  0.9772219132298864 -0.009974407121723252 0  0.9827297975109929 -0.009985285083248089 0  0.9888934840407251 -0.009993913310034224 0  0.9943667421923366 -0.009998434045983932 0  1.000414962337846 -0.009999991502249178 0  1.00616395254491 -0.009998125110441144 0  1.011844857354635 -0.009993077234903055 0  1.017933801412069 -0.009984132829796667 0  1.023390946643176 -0.00997301205183276 0  1.029544679732296 -0.009956955598792184 0  1.035089558108845 -0.009939300412459717 0  1.041010936359372 -0.009917116481575694 0  1.04691554237944 -0.00989157814857561 0  1.052471258615448 -0.009864440751261633 0  1.05862104751389 -0.009830897850136421 0  1.064075481579663 -0.009798076706746352 0  1.070173358231585 -0.009757978136698224 0  1.075837941143087 -0.00971752009646258 0  1.081604377355612 -0.009673173917302162 0  1.087640686528322 -0.009623351755525641 0  1.093119387704205 -0.009575135453199036 0  1.099284093826516 -0.009517491101966447 0  1.104783734376909 -0.009463052176492596 0  1.110779897618174 -0.009400480030121557 0  1.116599992234411 -0.00933655469875222 0  1.122217899723542 -0.009271889359757672 0  1.128339818747432 -0.009198135031144493 0  1.133789446190431 -0.00912961705214143 0  1.139923317158062 -0.009049295973540348 0  1.145515844317945 -0.008973134373133167 0  1.151367773813766 -0.008890475161473248 0  1.157336906671575 -0.008803064948780913 0  1.16285160438384 -0.008719557366803981 0  1.16901331600552 -0.008623157866544266 0  1.174481522907442 -0.00853490108265173 0  1.180539122189597 -0.008434191931863186 0  1.186271617394136 -0.008336073959344166 0  1.191966996821913 -0.008235914041393521 0  1.198046448076202 -0.008126091334838595 0  1.203505695906331 -0.008024945109277802 0  1.209661806077474 -0.007908057515838151 0  1.21519584913737 -0.007800455577732041 0  1.221132109188887 -0.00768241304184519 0  1.227019087412133 -0.007562711583992629 0  1.232585135446325 -0.007447155722966398 0  1.238729389023077 -0.007316953404904543 0  1.244180486899644 -0.007199156086382225 0  1.250286093435722 -0.007064709646262071 0  1.255932842016573 -0.006938052500145445 0  1.261716857103797 -0.006806053534187844 0  1.26773845151126 -0.006666245775332091 0  1.273222687278595 -0.006536836953056475 0  1.279386853652711 -0.00638906998029936 0  1.284876650734994 -0.006255450389977176 0  1.290887326898431 -0.00610702037198264 0  1.296685536664392 -0.00596177282270944 0  1.30231949087952 -0.005818744638503708 0  1.308431215520824
[...]
<PointData  Tensors="Total Stress"> 
<DataArray  type="Float64"  Name="Total Stress"  NumberOfComponents="9" format="ascii">1.2202233536134794e+00 -4.3192839247233167e-05 0.0000000000000000e+00 -4.3192839247233160e-05 2.8863737393533102e-02 0.0000000000000000e+00 0.0000000000000000e+00 0.0000000000000000e+00 0.0000000000000000e+00  1.2202233536134794e+00 -4.3192839247233167e-05 0.0000000000000000e+00 -4.3192839247233160e-05 2.8863737393533102e-02 0.0000000000000000e+00 0.0000000000000000e+00 0.0000000000000000e+00 0.0000000000000000e+00  8.0347730150157626e-01 -4.9253385209775599e-06 0.0000000000000000e+00 -4.9253385209775599e-06 -4.1902061395922754e-03 0.0000000000000000e+00 0.0000000000000000e+00 0.0000000000000000e+00 0.0000000000000000e+00  8.0347730150157626e-01 -4.9253385209775599e-06 0.0000000000000000e+00 -4.9253385209775599e-06 -4.1902061395922754e-03 0.0000000000000000e+00 0.0000000000000000e+00 0.0000000000000000e+00 0.0000000000000000e+00  1.2202565556642764e+00 -1.7426672919686778e-03 0.0000000000000000e+00 -1.7426672919686778e-03 2.8747841670220049e-02 0.0000000000000000e+00 0.0000000000000000e+00 0.0000000000000000e+00 0.0000000000000000e+00  1.2200971189786327e+00 -3.1387544728630310e-03 0.0000000000000000e+00 -3.1387544728630310e-03 2.8725787155205719e-02 0.0000000000000000e+00 0.0000000000000000e+00 0.0000000000000000e+00 0.0000000000000000e+00  1.2199052946479789e+00 -4.5836407703688815e-03 0.0000000000000000e+00 -4.5836407703688815e-03 2.8734223486434764e-02 0.0000000000000000e+00 0.0000000000000000e+00 0.0000000000000000e+00 0.0000000000000000e+00  1.2196285855519780e+00 -5.9870069975862736e-03 0.0000000000000000e+00 -5.9870069975862736e-03 2.8680572052342795e-02 0.0000000000000000e+00 0.0000000000000000e+00 0.0000000000000000e+00 0.0000000000000000e+00  1.2193190748754414e+00 -7.4227339833963200e-03 0.0000000000000000e+00 -7.4227339833963200e-03 2.8690412029215705e-02 0.0000000000000000e+00 0.0000000000000000e+00 0.0000000000000000e+00 0.0000000000000000e+00  1.2187942458681089e+00 -8.8681505314893022e-03 0.0000000000000000e+00 -8.8681505314893022e-03 2.8501754200452093e-02 0.0000000000000000e+00 0.0000000000000000e+00 0.0000000000000000e+00 0.0000000000000000e+00  1.2184103741988068e+00 -1.0217839000984757e-02 0.0000000000000000e+00 -1.0217839000984757e-02 2.8575629020672105e-02 0.0000000000000000e+00 0.0000000000000000e+00 0.0000000000000000e+00 0.0000000000000000e+00  1.2177596365581234e+00 -1.1650725052058365e-02 0.0000000000000000e+00 -1.1650725052058365e-02 2.8513185418208169e-02 0.0000000000000000e+00 0.0000000000000000e+00 0.0000000000000000e+00 0.0000000000000000e+00  1.2171448345604929e+00 -1.3034048640986109e-02 0.0000000000000000e+00 -1.3034048640986109e-02 2.8430998650900905e-02 0.0000000000000000e+00 0.0000000000000000e+00 0.0000000000000000e+00 0.0000000000000000e+00  1.2164390962700729e+00 -1.4486741603124577e-02 0.0000000000000000e+00 -1.4486741603124577e-02 2.8393186171488047e-02 0.0000000000000000e+00 0.0000000000000000e+00 0.0000000000000000e+00 0.0000000000000000e+00  1.2155809685605732e+00 -1.5822794664025530e-02 0.0000000000000000e+00 -1.5822794664025530e-02 2.8207122080627166e-02 0.0000000000000000e+00 0.0000000000000000e+00 0.0000000000000000e+00 0.0000000000000000e+00  1.2148910010845901e+00 -1.7142358937699699e-02 0.0000000000000000e+00 -1.7142358937699699e-02 2.8273722517726002e-02 0.0000000000000000e+00 0.0000000000000000e+00 0.0000000000000000e+00 0.0000000000000000e+00  1.2138018624908200e+00 -1.8640793155384951e-02 0.0000000000000000e+00 -1.8640793155384951e-02 2.8035577534404374e-02 0.0000000000000000e+00 0.0000000000000000e+00 0.0000000000000000e+00 0.0000000000000000e+00  1.2129536411951545e+00 -1.9951402808312375e-02 0.0000000000000000e+00 -1.9951402808312375e-02 2.8053546884922585e-02 0.0000000000000000e+00 0.0000000000000000e+00 0.0000000000000000e+00 0.0000000000000000e+00  1.2117416161964929e+00 -2.1369999763522260e-02 0.0000000000000000e+00 -2.1369999763522260e-02 2.7925212833819501e-02 0.0000000000000000e+00 0.0000000000000000e+00 0.0000000000000000e+00 0.0000000000000000e+00  1.2106374962283544e+00 -2.2698820996091676e-02 0.0000000000000000e+00 -2.2698820996091676e-02 2.7815009415715627e-02 0.0000000000000000e+00 0.0000000000000000e+00 0.0000000000000000e+00 0.0000000000000000e+00  1.2094250357013310e+00 -2.4075268737967299e-02 0.0000000000000000e+00 -2.4075268737967299e-02 2.7723777829293493e-02 0.0000000000000000e+00 0.0000000000000000e+00 0.0000000000000000e+00 0.0000000000000000e+00  1.2081295800109391e+00 -2.5409199281323184e-02 0.0000000000000000e+00 -2.5409199281323184e-02 2.7595256504863504e-02 0.0000000000000000e+00 0.0000000000000000e+00 0.0000000000000000e+00 0.0000000000000000e+00  1.2068409552856878e+00 -2.6726268592661022e-02 0.0000000000000000e+00 -2.6726268592661022e-02 2.7483460871739650e-02 0.0000000000000000e+00 0.0000000000000000e+00 0.0000000000000000e+00 0.0000000000000000e+00  1.2053244497890931e+00 -2.8119384370120959e-02 0.0000000000000000e+00 -2.8119384370120959e-02 2.7317425736640474e-02 0.0000000000000000e+00 0.0000000000000000e+00 0.0000000000000000e+00 0.0000000000000000e+00  1.2038914329468309e+00 -2.9369710319069219e-02 0.0000000000000000e+00 -2.9369710319069219e-02 2.7184497827651678e-02 0.0000000000000000e+00 0.0000000000000000e+00 0.0000000000000000e+00 0.0000000000000000e+00  1.2022707378957329e+00 -3.0717296701026062e-02 0.0000000000000000e+00 -3.0717296701026062e-02 2.7057494578345231e-02 0.0000000000000000e+00 0.0000000000000000e+00 0.0000000000000000e+00 0.0000000000000000e+00  1.2006572153956676e+00 -3.2011800042824022e-02 0.0000000000000000e+00 -3.2011800042824022e-02 2.6879512216132741e-02 0.0000000000000000e+00 0.0000000000000000e+00 0.0000000000000000e+00 0.0000000000000000e+00  1.1989653498123127e+00 -3.3249561168991477e-02 0.0000000000000000e+00 -3.3249561168991477e-02 2.6735112238522762e-02 0.0000000000000000e+00 0.0000000000000000e+00 0.0000000000000000e+00 0.0000000000000000e+00  1.1970875288480618e+00 -3.4544868218033105e-02 0.0000000000000000e+00 -3.4544868218033105e-02 2.6457152653840386e-02 0.0000000000000000e+00 0.0000000000000000e+00 0.0000000000000000e+00 0.0000000000000000e+00  1.1954379329813571e+00 -3.5718296456672100e-02 0.0000000000000000e+00 -3.5718296456672100e-02 2.6364889581173428e-02 0.0000000000000000e+00 0.0000000000000000e+00 0.0000000000000000e+00 0.0000000000000000e+00  1.1934255630722830e+00 -3.6983568906363708e-02 0.0000000000000000e+00 -3.6983568906363708e-02 2.6249563579255970e-02 0.0000000000000000e+00 0.0000000000000000e+00 0.0000000000000000e+00 0.0000000000000000e+00  1.1915990612328700e+00 -3.8175334495803105e-02 0.0000000000000000e+00 -3.8175334495803105e-02 2.6100911735993441e-02 0.0000000000000000e+00 0.0000000000000000e+00 0.0000000000000000e+00 0.0000000000000000e+00  1.1896151298361624e+00 -3.9412054513744334e-02 0.0000000000000000e+00 -3.9412054513744334e-02 2.6006466302527280e-02 0.0000000000000000e+00 0.0000000000000000e+00 0.0000000000000000e+00 0.0000000000000000e+00  1.1875604651540574e+00 -4.0614500156320441e-02 0.0000000000000000e+00 -4.0614500156320441e-02 2.5743565665026284e-02 0.0000000000000000e+00 0.0000000000000000e+00 0.0000000000000000e+00 0.0000000000000000e+00  1.1855242792808030e+00 -4.1813424215012003e-02 0.0000000000000000e+00 -4.1813424215012003e-02 2.5694897684782409e-02 0.0000000000000000e+00 0.0000000000000000e+00 0.0000000000000000e+00 0.0000000000000000e+00  1.1831862429657065e+00 -4.3079660344297492e-02 0.0000000000000000e+00 -4.3079660344297492e-02 2.5436077706358303e-02 0.0000000000000000e+00 0.0000000000000000e+00 0.0000000000000000e+00 0.0000000000000000e+00  1.1810249443951186e+00 -4.4210512758926082e-02 0.0000000000000000e+00 -4.4210512758926082e-02 2.5176538037168423e-02 0.0000000000000000e+00 0.0000000000000000e+00 0.0000000000000000e+00 0.0000000000000000e+00  1.1786260596301208e+00 -4.5460351279786898e-02 0.0000000000000000e+00 -4.5460351279786898e-02 2.5016619084553847e-02 0.0000000000000000e+00 0.0000000000000000e+00 0.0000000000000000e+00 0.0000000000000000e+00  1.1762619279677826e+00 -4.6518547113048238e-02 0.0000000000000000e+00 -4.6518547113048238e-02 2.4722935262161141e-02 0.0000000000000000e+00 0.0000000000000000e+00 0.0000000000000000e+00 0.0000000000000000e+00  1.1739099536429216e+00 -4.7655574284105710e-02 0.0000000000000000e+00 -4.7655574284105710e-02 2.4604803742682826e-02 0.0000000000000000e+00 0.0000000000000000e+00 0.0000000000000000e+00 0.0000000000000000e+00  1.1712578913733369e+00 -4.8733873278345420e-02 0.0000000000000000e+00 -4.8733873278345420e-02 2.4223639478770282e-02 0.0000000000000000e+00 0.0000000000000000e+00 0.0000000000000000e+00 0.0000000000000000e+00  1.1688834591395607e+00 -4.9770941071919809e-02 0.0000000000000000e+00 -4.9770941071919809e-02 2.4074807394804408e-02 0.0000000000000000e+00 0.0000000000000000e+00 0.0000000000000000e+00 0.0000000000000000e+00  1.1660735539240146e+00 -5.0888205951799034e-02 0.0000000000000000e+00 -5.0888205951799034e-02 2.3781935318602673e-02 0.0000000000000000e+00 0.0000000000000000e+00 0.0000000000000000e+00 0.0000000000000000e+00  1.1634977856637292e+00 -5.1869134612186230e-02 0.0000000000000000e+00 -5.1869134612186230e-02 2.3460012604471440e-02 0.0000000000000000e+00 0.0000000000000000e+00 0.0000000000000000e+00 0.0000000000000000e+00  1.1607515224068989e+00 -5.2928745041348174e-02 0.0000000000000000e+00 -5.2928745041348174e-02 2.3312821669894519e-02 0.0000000000000000e+00 0.0000000000000000e+00 0.0000000000000000e+00 0.0000000000000000e+00  1.1579094920686843e+00 -5.3941246309949765e-02 0.0000000000000000e+00 -5.3941246309949765e-02 2.2975701516540017e-02 0.0000000000000000e+00 0.0000000000000000e+00 0.0000000000000000e+00 0.0000000000000000e+00  1.1552161121427327e+00 -5.4905680385004423e-02 0.0000000000000000e+00 -5.4905680385004423e-02 2.2828912796883760e-02 0.0000000000000000e+00 0.0000000000000000e+00 0.0000000000000000e+00 0.0000000000000000e+00  1.1521475666915610e+00 -5.5929036851749013e-02 0.0000000000000000e+00 -5.5929036851749013e-02 2.2467709286824442e-02 0.0000000000000000e+00 0.0000000000000000e+00 0.0000000000000000e+00 0.0000000000000000e+00  1.1494175368883757e+00 -5.6838143772302119e-02 0.0000000000000000e+00 -5.6838143772302119e-02 2.2292600632800995e-02 0.0000000000000000e+00 0.0000000000000000e+00 0.0000000000000000e+00 0.0000000000000000e+00  1.1462456389486180e+00 -5.7840216463914969e-02 0.0000000000000000e+00 -5.7840216463914969e-02 2.1968120562499326e-02 0.0000000000000000e+00 0.0000000000000000e+00 0.0000000000000000e+00 0.0000000000000000e+00  1.1433178822946017e+00 -5.8767285929548670e-02 0.0000000000000000e+00 -5.8767285929548670e-02 2.1636925120005385e-02 0.0000000000000000e+00 0.0000000000000000e+00 0.0000000000000000e+00 0.0000000000000000e+00  1.1401225575274523e+00 -5.9667504535633943e-02 0.0000000000000000e+00 -5.9667504535633943e-02 2.1284763146830657e-02 0.0000000000000000e+00 0.0000000000000000e+00 0.0000000000000000e+00 0.0000000000000000e+00  1.1369124087884999e+00 -6.0530837272991501e-02 0.0000000000000000e+00 -6.0530837272991501e-02 2.0901331886312605e-02 0.0000000000000000e+00 0.0000000000000000e+00 0.0000000000000000e+00 0.0000000000000000e+00  1.1339418751833839e+00 -6.1370320625447228e-02 0.0000000000000000e+00 -6.1370320625447228e-02 2.0677980869392806e-02 0.0000000000000000e+00 0.0000000000000000e+00 0.0000000000000000e+00 0.0000000000000000e+00  1.1304862914037130e+00 -6.2271365454638981e-02 0.0000000000000000e+00 -6.2271365454638981e-02 2.0271863915590247e-02 0.0000000000000000e+00 0.0000000000000000e+00 0.0000000000000000e+00 0.0000000000000000e+00  1.1273717571837589e+00 -6.3042250884495638e-02 0.0000000000000000e+00 -6.3042250884495638e-02 2.0001029818258437e-02 0.0000000000000000e+00 0.0000000000000000e+00 0.0000000000000000e+00 0.0000000000000000e+00  1.1238541051835726e+00 -6.3835919303724162e-02 0.0000000000000000e+00 -6.3835919303724176e-02 1.9568432818652021e-02 0.0000000000000000e+00 0.0000000000000000e+00 0.0000000000000000e+00 0.0000000000000000e+00  1.1206090593283689e+00 -6.4634785311646473e-02 0.0000000000000000e+00 -6.4634785311646445e-02 1.9322007106722182e-02 0.0000000000000000e+00 0.0000000000000000e+00 0.0000000000000000e+00 0.0000000000000000e+00  1.1172206196094978e+00 -6.5332275090447589e-02 0.0000000000000000e+00 -6.5332275090447603e-02 1.8998323544400328e-02 0.0000000000000000e+00 0.0000000000000000e+00 0.0000000000000000e+00 0.0000000000000000e+00  1.1136920881699912e+00 -6.6059933943331844e-02 0.0000000000000000e+00 -6.6059933943331844e-02 1.8552252798300521e-02 0.0000000000000000e+00 0.0000000000000000e+00 0.0000000000000000e+00 0.0000000000000000e+00  1.1104771541538150e+00 -6.6787053194976145e-02 0.0000000000000000e+00 -6.6787053194976145e-02 1.8348118101300867e-02 0.0000000000000000e+00 0.0000000000000000e+00 0.0000000000000000e+00 0.0000000000000000e+00  1.1066788036616904e+00 -6.7546691554622881e-02 0.0000000000000000e+00 -6.7546691554622881e-02 1.7926346932124245e-02 0.0000000000000000e+00 0.0000000000000000e+00 0.0000000000000000e+00 0.0000000000000000e+00  1.1032521504628396e+00 -6.8190242745056640e-02 0.0000000000000000e+00 -6.8190242745056640e-02 1.7501726426589655e-02 0.0000000000000000e+00 0.0000000000000000e+00 0.0000000000000000e+00 0.0000000000000000e+00  1.0995067070411344e+00 -6.8886240975163215e-02 0.0000000000000000e+00 -6.8886240975163215e-02 1.7112084004133048e-02 0.0000000000000000e+00 0.0000000000000000e+00 0.0000000000000000e+00 0.0000000000000000e+00  1.0957900296823966e+00 -6.9513449803626254e-02 0.0000000000000000e+00 -6.9513449803626254e-02 1.6620610653263704e-02 0.0000000000000000e+00 0.0000000000000000e+00 0.0000000000000000e+00 0.0000000000000000e+00  1.0921842876592922e+00 -7.0090385874092109e-02 0.0000000000000000e+00 -7.0090385874092109e-02 1.6225176798336263e-02 0.0000000000000000e+00 0.0000000000000000e+00 0.0000000000000000e+00 0.0000000000000000e+00  1.0882813328889656e+00 -7.0643059961356322e-02 0.0000000000000000e+00 -7.0643059961356322e-02 1.5784582803165064e-02 0.0000000000000000e+00 0.0000000000000000e+00 0.0000000000000000e+00 0.0000000000000000e+00  1.0847609962269134e+00 -7.1173311166645145e-02 0.0000000000000000e+00 -7.1173311166645145e-02 1.5359422133641781e-02 0.0000000000000000e+00 0.0000000000000000e+00 0.0000000000000000e+00 0.0000000000000000e+00  1.0807142004156507e+00 -7.1695720260579049e-02 0.0000000000000000e+00 -7.1695720260579049e-02 1.4896829333079035e-02 0.0000000000000000e+00 0.0000000000000000e+00 0.0000000000000000e+00 0.0000000000000000e+00  1.0770460852720383e+00 -7.2146816309057796e-02 0.0000000000000000e+00 -7.2146816309057796e-02 1.4456212826625927e-02 0.0000000000000000e+00 0.0000000000000000e+00 0.0000000000000000e+00 0.0000000000000000e+00  1.0731439447389102e+00 -7.2637954224624907e-02 0.0000000000000000e+00 -7.2637954224624907e-02 1.4009153460299344e-02 0.0000000000000000e+00 0.0000000000000000e+00 0.0000000000000000e+00 0.0000000000000000e+00  1.0692036534222165e+00 -7.3062178094715130e-02 0.0000000000000000e+00 -7.3062178094715116e-02 1.3554760958528856e-02 0.0000000000000000e+00 0.0000000000000000e+00 0.0000000000000000e+00 0.0000000000000000e+00  1.0655165970011724e+00 -7.3464976151902922e-02 0.0000000000000000e+00 -7.3464976151902880e-02 1.3155044147143163e-02 0.0000000000000000e+00 0.0000000000000000e+00 0.0000000000000000e+00 0.0000000000000000e+00  1.0613927670746643e+00 -7.3910441326583934e-02 0.0000000000000000e+00 -7.3910441326583948e-02 1.2684580016415909e-02 0.0000000000000000e+00 0.0000000000000000e+00 0.0000000000000000e+00 0.0000000000000000e+00  1.0576594999807625e+00 -7.4273032360150884e-02 0.0000000000000000e+00 -7.4273032360150884e-02 1.2233569261601745e-02 0.0000000000000000e+00 0.0000000000000000e+00 0.0000000000000000e+00 0.0000000000000000e+00  1.0535014239649290e+00 -7.4655079406903690e-02 0.0000000000000000e+00 -7.4655079406903690e-02 1.1715113475917615e-02 0.0000000000000000e+00 0.0000000000000000e+00 0.0000000000000000e+00 0.0000000000000000e+00  1.0495719670908976e+00 -7.5011655613605899e-02 0.0000000000000000e+00 -7.5011655613605899e-02 1.1226933766594824e-02 0.0000000000000000e+00 0.0000000000000000e+00 0.0000000000000000e+00 0.0000000000000000e+00  1.0455594274043425e+00 -7.5276186140576948e-02 0.0000000000000000e+00 -7.5276186140576948e-02 1.0698905574046234e-02 0.0000000000000000e+00 0.0000000000000000e+00 0.0000000000000000e+00 0.0000000000000000e+00  1.0413905132632033e+00 -7.5525944656538821e-02 0.0000000000000000e+00 -7.5525944656538821e-02 1.0176375239978148e-02 0.0000000000000000e+00 0.0000000000000000e+00 0.0000000000000000e+00 0.0000000000000000e+00  1.0376188328844853e+00 -7.5777762018933756e-02 0.0000000000000000e+00 -7.5777762018933756e-02 9.7532553683235268e-03 0.0000000000000000e+00 0.0000000000000000e+00 0.0000000000000000e+00 0.0000000000000000e+00  1.0332662646877426e+00 -7.6054654060834073e-02 0.0000000000000000e+00 -7.6054654060834073e-02 9.2010190318173608e-03 0.0000000000000000e+00 0.0000000000000000e+00 0.0000000000000000e+00 0.0000000000000000e+00  1.0293961497342767e+00 -7.6282340941556864e-02 0.0000000000000000e+00 -7.6282340941556864e-02 8.7225856300356779e-03 0.0000000000000000e+00 0.0000000000000000e+00 0.0000000000000000e+00 0.0000000000000000e+00  1.0251210165952978e+00 -7.6410823803789343e-02 0.0000000000000000e+00 -7.6410823803789343e-02 8.1812061343717185e-03 0.0000000000000000e+00 0.0000000000000000e+00 0.0000000000000000e+00 0.0000000000000000e+00  1.0210343226222480e+00 -7.6584387813295879e-02 0.0000000000000000e+00 -7.6584387813295879e-02 7.6668837680363951e-03 0.0000000000000000e+00 0.0000000000000000e+00 0.0000000000000000e+00 0.0000000000000000e+00  1.0169900582353881e+00 -7.6731905242828441e-02 0.0000000000000000e+00 -7.6731905242828441e-02 7.1003260812604841e-03 0.0000000000000000e+00 0.0000000000000000e+00 0.0000000000000000e+00 0.0000000000000000e+00  1.0126017969797823e+00 -7.6886268440801681e-02 0.0000000000000000e+00 -7.6886268440801681e-02 6.4997308606309341e-03 0.0000000000000000e+00 0.0000000000000000e+00 0.0000000000000000e+00 0.0000000000000000e+00  1.0087361250731686e+00 -7.6938779713259145e-02 0.0000000000000000e+00 -7.6938779713259145e-02 5.9857182207669578e-03 0.0000000000000000e+00 0.0000000000000000e+00 0.0000000000000000e+00 0.0000000000000000e+00  1.0043623370703318e+00 -7.7034100610590045e-02 0.0000000000000000e+00 -7.7034100610590045e-02 5.3850663957486881e-03 0.0000000000000000e+00 0.0000000000000000e+00 0.0000000000000000e+00 0.0000000000000000e+00  1.0003749332980287e+00 -7.6999855625460731e-02 0.0000000000000000e+00 -7.6999855625460731e-02 4.8374988583729768e-03 0.0000000000000000e+00 0.0000000000000000e+00 0.0000000000000000e+00 0.0000000000000000e+00  9.9618965195800191e-01 -7.6930623301384560e-02 0.0000000000000000e+00 -7.6930623301384560e-02 4.2560697715064589e-03 0.0000000000000000e+00 0.0000000000000000e+00 0.0000000000000000e+00 0.0000000000000000e+00  9.9185303889810184e-01 -7.6934583490337688e-02 0.0000000000000000e+00 -7.6934583490337688e-02 3.6349757086737529e-03 0.0000000000000000e+00 0.0000000000000000e+00 0.0000000000000000e+00 0.0000000000000000e+00  9.8794437935399060e-01 -7.6816112832883324e-02 0.0000000000000000e+00 -7.6816112832883324e-02 3.0992022036101948e-03 0.0000000000000000e+00 0.0000000000000000e+00 0.0000000000000000e+00 0.0000000000000000e+00  9.8353949984423938e-01 -7.6693639792880935e-02 0.0000000000000000e+00 -7.6693639792880935e-02 2.3903600328584232e-03 0.0000000000000000e+00 0.0000000000000000e+00 0.0000000000000000e+00 0.0000000000000000e+00  9.7956455313387969e-01 -7.6625048711785895e-02 0.0000000000000000e+00 -7.6625048711785895e-02 1.8687855233022993e-03 0.0000000000000000e+00 0.0000000000000000e+00 0.0000000000000000e+00 0.0000000000000000e+00  9.7523220966051538e-01 -7.6430843405861468e-02 0.0000000000000000e+00 -7.6430843405861468e-02 1.2583280867810981e-03 0.000000000000000