<?xml version="1.0"?>
<VTKFile type="UnstructuredGrid"  version="0.1"  >
<UnstructuredGrid>
<Piece  NumberOfPoints="4286" NumberOfCells="6788">
<Points>
<DataArray  type="Float64"  NumberOfComponents="3"  format="ascii">0 0.01 0  10 0.01 0  0 1.014426169383459 0  10 1.014426169383459 0  0.007129524987038337 0.009997491741717768 0  0.01258064459049757 0.00999219056738478 0  0.01872173241756402 0.009982708334120727 0  0.02429919625640796 0.009970876572043954 0  0.03017238705920286 0.009955108531615313 0  0.03612352734296466 0.0099356743715591 0  0.04164979236492252 0.009914517792428084 0  0.04780928449023854 0.009887415768096998 0  0.05327287671237849 0.009860276931383746 0  0.0593436395885565 0.009826715421083503 0  0.06505608699933001 0.009791870631895848 0  0.07077243060783153 0.009753845329312128 0  0.07684085351634186 0.009710036052663748 0  0.08230528612367993 0.009667566921662384 0  0.08846525752759338 0.009616276826848907 0  0.09398926586603956 0.0095672187064786 0  0.09994377871281757 0.009511110804477986 0  0.10581288515308 0.009452550633355501 0  0.1113930001121819 0.009393893683773193 0  0.1175326299024069 0.009326020378011352 0  0.122983161250664 0.009262856809916281 0  0.1290978349347763 0.009188765415777931 0  0.1347300222736412 0.00911751981665075 0  0.1405327472005438 0.009041131768776852 0  0.1465421455697866 0.008958856277281909 0  0.1520341809431761 0.008880870879718691 0  0.1581991754706344 0.00879018143976357 0  0.1636834803794234 0.008706732874359017 0  0.1697073563005918 0.008612096527554045 0  0.1754901396361989 0.008518345936558386 0  0.1811391035120075 0.008424050210098115 0  0.1872444279222087 0.00831915423323064 0  0.1926961446341008 0.008222899998379215 0  0.198841090009393 0.008111516418624823 0  0.2044064770158165 0.008008028244452866 0  0.2102948627703611 0.007895869216798803 0  0.2162299794791283 0.007780085801116003 0  0.2217647046821167 0.007669675498109103 0  0.2279204403470532 0.007544154739747676 0  0.2333791472114919 0.007430485124751003 0  0.2394590817234977 0.0073013084386626 0  0.245152498789355 0.007177928079207972 0  0.2508861115607116 0.007051356111670669 0  0.2569419868439766 0.006915186417023598 0  0.2624099649457279 0.006790084113692359 0  0.2685711825796066 0.006646722567663751 0  0.274083748205357 0.006516341894728842 0  0.2800541704182985 0.00637292855786236 0  0.2859022845836161 0.006230279166502627 0  0.291495955429921 0.006091868246150131 0  0.2976275706217687 0.005937986548763313 0  0.3030757324287757 0.005799406374294222 0  0.3091980118239236 0.005641654227187252 0  0.3148109405089491 0.005495191514879527 0  0.3206341933715942 0.005341435282378838 0  0.3266248575896781 0.005181393525330103 0  0.3321252080346692 0.005032833254881577 0  0.3382880718234609 0.004864596209960478 0  0.3437628463580178 0.004713611578807419 0  0.3498021006600692 0.004545443593512952 0  0.3555594631656461 0.004383601001460968 0  0.3612291099056053 0.004222822711549606 0  0.3673210805066339 0.004048576418709386 0  0.3727746135437823 0.003891330909934085 0  0.3789246700786391 0.003712634483246944 0  0.3844721023230384 0.00355025746928806 0  0.3903845048135511 0.003376011435332509 0  0.3962935688476314 0.003200699755406988 0  0.4018430601204535 0.00303505085978487 0  0.4079921977692303 0.002850427660455144 0  0.4134449905916002 0.002685819499171436 0  0.4195385366679084 0.002500937932218923 0  0.425204482428441 0.002328206591247292 0  0.4309651825948974 0.00215183074136113 0  0.4370014133195289 0.001966263547608745 0  0.4424769325836848 0.00179732019881714 0  0.4486395183564056 0.001606544730410899 0  0.4541373275735043 0.001435838569361521 0  0.4601308451156257 0.001249254088784412 0  0.4659488863550298 0.001067707976620331 0  0.471564807260988 0.0008921302908496037 0  0.4776843759254726 0.0007004920228137959 0  0.4831317484445766 0.0005296836585198918 0  0.4892643513384632 0.0003372062279158936 0  0.4948528283485032 0.000161696161435303 0  0.5007056813361916 -2.216943068070812e-05 0  0.5066699093509902 -0.000209526046556915 0  0.5121845298566023 -0.0003826949545447442 0  0.5183439831944545 -0.0005759742926309219 0  0.5238088617282698 -0.0007472800272428554 0  0.5298681543527348 -0.0009369594486414562 0  0.5355929349139432 -0.001115856450691032 0  0.5412927239341832 -0.001293613669039852 0  0.5473668732672543 -0.001482588207084091 0  0.5528259073001393 -0.001651967505962102 0  0.5589819336317072 -0.001842386787779294 0  0.5645100189486582 -0.002012797049529044 0  0.5704524332663232 -0.002195301346534757 0  0.5763298911552834 -0.002375058665203144 0  0.5819006708717119 -0.002544689651648297 0  0.5880413281562127 -0.002730768313747055 0  0.5934904284812221 -0.002895042191696308 0  0.5995995320960693 -0.003078202338538874 0  0.605236779888003 -0.003246210954182579 0  0.6110299855290301 -0.003417806240976177 0  0.6170432999212266 -0.00359472323302265 0  0.6225307972792151 -0.00375505261922207 0  0.6286944373476531 -0.003933803567825084 0  0.6341794289295242 -0.004091634709336539 0  0.6401977648984302 -0.004263413669385436 0  0.6459846030577213 -0.004427148756161272 0  0.6516277670629291 -0.004585409549508515 0  0.6577342305863492 -0.004755038487876419 0  0.6631843111407589 -0.004904958327357115 0  0.6693271588517591 -0.005072208653571043 0  0.6748942591145469 -0.005222152905474348 0  0.6807781354428797 -0.005378892074409919 0  0.6867158102497221 -0.005535201343768038 0  0.6922478556369909 -0.005679100421160843 0  0.6984036264198542 -0.005837205328254034 0  0.7038624132928571 -0.005975584427524931 0  0.7099402809449575 -0.006127588021236129 0  0.7156361945945205 -0.006268012368771779 0  0.7213667017809595 -0.006407263887957157 0  0.7274241898103784 -0.006552202568912044 0  0.7328913375361901 -0.006680980644346233 0  0.7390522654079078 -0.006823736587757829 0  0.7445663161830813 -0.006949337256267011 0  0.7505345306161221 -0.007082931996795786 0  0.7563856967966242 -0.007211490056377221 0  0.7619775509571868 -0.007332073958440476 0  0.7681106054434813 -0.007461725199742056 0  0.7735594228940573 -0.007574589702563127 0  0.7796809699364847 -0.007698739982391196 0  0.7852974086111042 -0.007810142587226769 0  0.7911178568436495 -0.007923025648348906 0  0.797112403703894 -0.008036515862006795 0  0.8026119630288198 -0.008138129173272899 0  0.8087760180262171 -0.008249131188213875 0  0.814253500572072 -0.008345174877796967 0  0.8202905515677629 -0.008448166667805387 0  0.8260544286221699 -0.008543663134562481 0  0.831720415905675 -0.008634807324656511 0  0.8378167080097026 -0.008729817306667463 0  0.8432709709919499 -0.008812108559864256 0  0.8494209576248264 -0.008901791974276371 0  0.8549745826348545 -0.008979924427376591 0  0.8608814329347291 -0.009060026011188804 0  0.8667998142885592 -0.009137155111096256 0  0.8723460990452367 -0.009206568509458774 0  0.8784989383774584 -0.009280301817794542 0  0.8839552890388401 -0.009342788637451834 0  0.8900456692707091 -0.009409293585850673 0  0.8957233874467343 -0.009468190513990782 0  0.9014754209053449 -0.009524786393944277 0  0.9075213579987256 -0.009580921173179099 0  0.9129954731058688 -0.009628765913494807 0  0.9191593188847452 -0.009679229788646495 0  0.9246655330424429 -0.009721240864333262 0  0.9306503084472221 -0.009763603884533442 0  0.9364847200361547 -0.009801580348484516 0  0.9420914259676206 -0.009834972127394636 0  0.948219177636862 -0.009867976960504428 0  0.9536688877131657 -0.009894257783109666 0  0.9597979104438458 -0.009920349306153329 0  0.9654020314719589 -0.009940987600901847 0  0.9712398170272581 -0.009959209624459757 0  0.9772219132298864 -0.009974407121723252 0  0.9827297975109929 -0.009985285083248089 0  0.9888934840407251 -0.009993913310034224 0  0.9943667421923366 -0.009998434045983932 0  1.000414962337846 -0.009999991502249178 0  1.00616395254491 -0.009998125110441144 0  1.011844857354635 -0.009993077234903055 0  1.017933801412069 -0.009984132829796667 0  1.023390946643176 -0.00997301205183276 0  1.029544679732296 -0.009956955598792184 0  1.035089558108845 -0.009939300412459717 0  1.041010936359372 -0.009917116481575694 0  1.04691554237944 -0.00989157814857561 0  1.052471258615448 -0.009864440751261633 0  1.05862104751389 -0.009830897850136421 0  1.064075481579663 -0.009798076706746352 0  1.070173358231585 -0.009757978136698224 0  1.075837941143087 -0.00971752009646258 0  1.081604377355612 -0.009673173917302162 0  1.087640686528322 -0.009623351755525641 0  1.093119387704205 -0.009575135453199036 0  1.099284093826516 -0.009517491101966447 0  1.104783734376909 -0.009463052176492596 0  1.110779897618174 -0.009400480030121557 0  1.116599992234411 -0.00933655469875222 0  1.122217899723542 -0.009271889359757672 0  1.128339818747432 -0.009198135031144493 0  1.133789446190431 -0.00912961705214143 0  1.139923317158062 -0.009049295973540348 0  1.145515844317945 -0.008973134373133167 0  1.151367773813766 -0.008890475161473248 0  1.157336906671575 -0.008803064948780913 0  1.16285160438384 -0.008719557366803981 0  1.16901331600552 -0.008623157866544266 0  1.174481522907442 -0.00853490108265173 0  1.180539122189597 -0.008434191931863186 0  1.186271617394136 -0.008336073959344166 0  1.191966996821913 -0.008235914041393521 0  1.198046448076202 -0.008126091334838595 0  1.203505695906331 -0.008024945109277802 0  1.209661806077474 -0.007908057515838151 0  1.21519584913737 -0.007800455577732041 0  1.221132109188887 -0.00768241304184519 0  1.227019087412133 -0.007562711583992629 0  1.232585135446325 -0.007447155722966398 0  1.238729389023077 -0.007316953404904543 0  1.244180486899644 -0.007199156086382225 0  1.250286093435722 -0.007064709646262071 0  1.255932842016573 -0.006938052500145445 0  1.261716857103797 -0.006806053534187844 0  1.26773845151126 -0.006666245775332091 0  1.273222687278595 -0.006536836953056475 0  1.279386853652711 -0.00638906998029936 0  1.284876650734994 -0.006255450389977176 0  1.290887326898431 -0.00610702037198264 0  1.296685536664392 -0.00596177282270944 0  1.30231949087952 -0.005818744638503708 0  1.308431215520824
[...]
<PointData  Tensors="Total Stress"> 
<DataArray  type="Float64"  Name="Total Stress"  NumberOfComponents="9" format="ascii">1.2279132821790826e+00 2.1804308212499823e-05 0.0000000000000000e+00 2.1804308212499796e-05 3.6499353455504202e-02 0.0000000000000000e+00 0.0000000000000000e+00 0.0000000000000000e+00 0.0000000000000000e+00  1.2279132821790826e+00 2.1804308212499823e-05 0.0000000000000000e+00 2.1804308212499796e-05 3.6499353455504202e-02 0.0000000000000000e+00 0.0000000000000000e+00 0.0000000000000000e+00 0.0000000000000000e+00  8.5594492123607901e-01 4.7742626626236324e-05 0.0000000000000000e+00 4.7742626626236324e-05 -3.5441186187143117e-03 0.0000000000000000e+00 0.0000000000000000e+00 0.0000000000000000e+00 0.0000000000000000e+00  8.5594492123607901e-01 4.7742626626236324e-05 0.0000000000000000e+00 4.7742626626236324e-05 -3.5441186187143117e-03 0.0000000000000000e+00 0.0000000000000000e+00 0.0000000000000000e+00 0.0000000000000000e+00  1.2278516602859737e+00 -1.8593503847480690e-03 0.0000000000000000e+00 -1.8593503847480690e-03 3.6283254818430907e-02 0.0000000000000000e+00 0.0000000000000000e+00 0.0000000000000000e+00 0.0000000000000000e+00  1.2277038621534619e+00 -3.3124807018477544e-03 0.0000000000000000e+00 -3.3124807018477540e-03 3.6331327164229231e-02 0.0000000000000000e+00 0.0000000000000000e+00 0.0000000000000000e+00 0.0000000000000000e+00  1.2276133745605791e+00 -4.8719919950829978e-03 0.0000000000000000e+00 -4.8719919950829978e-03 3.6437847039408389e-02 0.0000000000000000e+00 0.0000000000000000e+00 0.0000000000000000e+00 0.0000000000000000e+00  1.2272421378325902e+00 -6.3352061818587628e-03 0.0000000000000000e+00 -6.3352061818587636e-03 3.6217252605863573e-02 0.0000000000000000e+00 0.0000000000000000e+00 0.0000000000000000e+00 0.0000000000000000e+00  1.2268655129351653e+00 -7.8979391428787276e-03 0.0000000000000000e+00 -7.8979391428787259e-03 3.6341461636079930e-02 0.0000000000000000e+00 0.0000000000000000e+00 0.0000000000000000e+00 0.0000000000000000e+00  1.2264239346385020e+00 -9.4315241174453817e-03 0.0000000000000000e+00 -9.4315241174453800e-03 3.6172093674733827e-02 0.0000000000000000e+00 0.0000000000000000e+00 0.0000000000000000e+00 0.0000000000000000e+00  1.2259654286868749e+00 -1.0880103360223704e-02 0.0000000000000000e+00 -1.0880103360223702e-02 3.6204017450038255e-02 0.0000000000000000e+00 0.0000000000000000e+00 0.0000000000000000e+00 0.0000000000000000e+00  1.2253258116307741e+00 -1.2504202325920383e-02 0.0000000000000000e+00 -1.2504202325920383e-02 3.6079280543906252e-02 0.0000000000000000e+00 0.0000000000000000e+00 0.0000000000000000e+00 0.0000000000000000e+00  1.2247028421534762e+00 -1.3930647325819098e-02 0.0000000000000000e+00 -1.3930647325819097e-02 3.5981281011629666e-02 0.0000000000000000e+00 0.0000000000000000e+00 0.0000000000000000e+00 0.0000000000000000e+00  1.2239071812931426e+00 -1.5486917774730350e-02 0.0000000000000000e+00 -1.5486917774730350e-02 3.5853314840995174e-02 0.0000000000000000e+00 0.0000000000000000e+00 0.0000000000000000e+00 0.0000000000000000e+00  1.2230702210616589e+00 -1.6963871998056424e-02 0.0000000000000000e+00 -1.6963871998056424e-02 3.5724038006164083e-02 0.0000000000000000e+00 0.0000000000000000e+00 0.0000000000000000e+00 0.0000000000000000e+00  1.2221934490843327e+00 -1.8373920049554446e-02 0.0000000000000000e+00 -1.8373920049554446e-02 3.5587548040504555e-02 0.0000000000000000e+00 0.0000000000000000e+00 0.0000000000000000e+00 0.0000000000000000e+00  1.2211963922817393e+00 -1.9887079479271683e-02 0.0000000000000000e+00 -1.9887079479271683e-02 3.5520529402063565e-02 0.0000000000000000e+00 0.0000000000000000e+00 0.0000000000000000e+00 0.0000000000000000e+00  1.2200528237193209e+00 -2.1305065977445636e-02 0.0000000000000000e+00 -2.1305065977445636e-02 3.5228502222379859e-02 0.0000000000000000e+00 0.0000000000000000e+00 0.0000000000000000e+00 0.0000000000000000e+00  1.2190954040941047e+00 -2.2776965120906049e-02 0.0000000000000000e+00 -2.2776965120906049e-02 3.5279411641105943e-02 0.0000000000000000e+00 0.0000000000000000e+00 0.0000000000000000e+00 0.0000000000000000e+00  1.2177612158412292e+00 -2.4181336555748570e-02 0.0000000000000000e+00 -2.4181336555748570e-02 3.4953023337112657e-02 0.0000000000000000e+00 0.0000000000000000e+00 0.0000000000000000e+00 0.0000000000000000e+00  1.2167243726171149e+00 -2.5574622168383965e-02 0.0000000000000000e+00 -2.5574622168383965e-02 3.4987016271315868e-02 0.0000000000000000e+00 0.0000000000000000e+00 0.0000000000000000e+00 0.0000000000000000e+00  1.2152397321988107e+00 -2.7018769637468246e-02 0.0000000000000000e+00 -2.7018769637468246e-02 3.4741653190721082e-02 0.0000000000000000e+00 0.0000000000000000e+00 0.0000000000000000e+00 0.0000000000000000e+00  1.2140778052630696e+00 -2.8373119989886307e-02 0.0000000000000000e+00 -2.8373119989886307e-02 3.4769385775848809e-02 0.0000000000000000e+00 0.0000000000000000e+00 0.0000000000000000e+00 0.0000000000000000e+00  1.2125051082442140e+00 -2.9925404039755618e-02 0.0000000000000000e+00 -2.9925404039755618e-02 3.4585854906373545e-02 0.0000000000000000e+00 0.0000000000000000e+00 0.0000000000000000e+00 0.0000000000000000e+00  1.2109678163220658e+00 -3.1293088918216846e-02 0.0000000000000000e+00 -3.1293088918216846e-02 3.4283183432462450e-02 0.0000000000000000e+00 0.0000000000000000e+00 0.0000000000000000e+00 0.0000000000000000e+00  1.2092914731076592e+00 -3.2834149094564453e-02 0.0000000000000000e+00 -3.2834149094564453e-02 3.4245755609874313e-02 0.0000000000000000e+00 0.0000000000000000e+00 0.0000000000000000e+00 0.0000000000000000e+00  1.2076561092590659e+00 -3.4169937996002077e-02 0.0000000000000000e+00 -3.4169937996002091e-02 3.3854443869768859e-02 0.0000000000000000e+00 0.0000000000000000e+00 0.0000000000000000e+00 0.0000000000000000e+00  1.2058571766177546e+00 -3.5417084385062941e-02 0.0000000000000000e+00 -3.5417084385062948e-02 3.3514845147310138e-02 0.0000000000000000e+00 0.0000000000000000e+00 0.0000000000000000e+00 0.0000000000000000e+00  1.2038173216522794e+00 -3.6915509867126640e-02 0.0000000000000000e+00 -3.6915509867126640e-02 3.3423957221930652e-02 0.0000000000000000e+00 0.0000000000000000e+00 0.0000000000000000e+00 0.0000000000000000e+00  1.2020903390333653e+00 -3.8169063181609328e-02 0.0000000000000000e+00 -3.8169063181609328e-02 3.3256901130116277e-02 0.0000000000000000e+00 0.0000000000000000e+00 0.0000000000000000e+00 0.0000000000000000e+00  1.2000525464776690e+00 -3.9569104726465305e-02 0.0000000000000000e+00 -3.9569104726465305e-02 3.2991649943867246e-02 0.0000000000000000e+00 0.0000000000000000e+00 0.0000000000000000e+00 0.0000000000000000e+00  1.1980539049243311e+00 -4.0795797211769978e-02 0.0000000000000000e+00 -4.0795797211769978e-02 3.2668955936901042e-02 0.0000000000000000e+00 0.0000000000000000e+00 0.0000000000000000e+00 0.0000000000000000e+00  1.1960166214877375e+00 -4.2097124400426372e-02 0.0000000000000000e+00 -4.2097124400426372e-02 3.2508701238163268e-02 0.0000000000000000e+00 0.0000000000000000e+00 0.0000000000000000e+00 0.0000000000000000e+00  1.1938426615787670e+00 -4.3356292467657494e-02 0.0000000000000000e+00 -4.3356292467657480e-02 3.2235743854432383e-02 0.0000000000000000e+00 0.0000000000000000e+00 0.0000000000000000e+00 0.0000000000000000e+00  1.1917053987776391e+00 -4.4567788778762982e-02 0.0000000000000000e+00 -4.4567788778762982e-02 3.2053475189453007e-02 0.0000000000000000e+00 0.0000000000000000e+00 0.0000000000000000e+00 0.0000000000000000e+00  1.1893658998974619e+00 -4.5906113791647760e-02 0.0000000000000000e+00 -4.5906113791647760e-02 3.1805911312028971e-02 0.0000000000000000e+00 0.0000000000000000e+00 0.0000000000000000e+00 0.0000000000000000e+00  1.1871869516823321e+00 -4.7137054415707397e-02 0.0000000000000000e+00 -4.7137054415707397e-02 3.1614281292219819e-02 0.0000000000000000e+00 0.0000000000000000e+00 0.0000000000000000e+00 0.0000000000000000e+00  1.1846923239042679e+00 -4.8432047374152319e-02 0.0000000000000000e+00 -4.8432047374152319e-02 3.1263106908461957e-02 0.0000000000000000e+00 0.0000000000000000e+00 0.0000000000000000e+00 0.0000000000000000e+00  1.1822167228138696e+00 -4.9596708941083409e-02 0.0000000000000000e+00 -4.9596708941083409e-02 3.1062673370469675e-02 0.0000000000000000e+00 0.0000000000000000e+00 0.0000000000000000e+00 0.0000000000000000e+00  1.1796587870455817e+00 -5.0804710539885417e-02 0.0000000000000000e+00 -5.0804710539885396e-02 3.0690107319121973e-02 0.0000000000000000e+00 0.0000000000000000e+00 0.0000000000000000e+00 0.0000000000000000e+00  1.1770579525606180e+00 -5.2058941186865645e-02 0.0000000000000000e+00 -5.2058941186865645e-02 3.0336511728441116e-02 0.0000000000000000e+00 0.0000000000000000e+00 0.0000000000000000e+00 0.0000000000000000e+00  1.1745339198215896e+00 -5.3185615094377733e-02 0.0000000000000000e+00 -5.3185615094377733e-02 3.0027844447453936e-02 0.0000000000000000e+00 0.0000000000000000e+00 0.0000000000000000e+00 0.0000000000000000e+00  1.1716760292640134e+00 -5.4412060372088879e-02 0.0000000000000000e+00 -5.4412060372088879e-02 2.9662899953692853e-02 0.0000000000000000e+00 0.0000000000000000e+00 0.0000000000000000e+00 0.0000000000000000e+00  1.1690737994676035e+00 -5.5535040761452298e-02 0.0000000000000000e+00 -5.5535040761452298e-02 2.9384382415633768e-02 0.0000000000000000e+00 0.0000000000000000e+00 0.0000000000000000e+00 0.0000000000000000e+00  1.1661616769268606e+00 -5.6580411326780766e-02 0.0000000000000000e+00 -5.6580411326780766e-02 2.9042981729123330e-02 0.0000000000000000e+00 0.0000000000000000e+00 0.0000000000000000e+00 0.0000000000000000e+00  1.1633616803405005e+00 -5.7625754330802324e-02 0.0000000000000000e+00 -5.7625754330802324e-02 2.8711969905192512e-02 0.0000000000000000e+00 0.0000000000000000e+00 0.0000000000000000e+00 0.0000000000000000e+00  1.1604445675640425e+00 -5.8740199682624235e-02 0.0000000000000000e+00 -5.8740199682624235e-02 2.8361170740950105e-02 0.0000000000000000e+00 0.0000000000000000e+00 0.0000000000000000e+00 0.0000000000000000e+00  1.1573059809698834e+00 -5.9841830284530786e-02 0.0000000000000000e+00 -5.9841830284530786e-02 2.7978304853020244e-02 0.0000000000000000e+00 0.0000000000000000e+00 0.0000000000000000e+00 0.0000000000000000e+00  1.1543603483307017e+00 -6.0795741658295134e-02 0.0000000000000000e+00 -6.0795741658295134e-02 2.7529726387500595e-02 0.0000000000000000e+00 0.0000000000000000e+00 0.0000000000000000e+00 0.0000000000000000e+00  1.1511953805393469e+00 -6.1869318295085005e-02 0.0000000000000000e+00 -6.1869318295085005e-02 2.7239361886106022e-02 0.0000000000000000e+00 0.0000000000000000e+00 0.0000000000000000e+00 0.0000000000000000e+00  1.1480284257734430e+00 -6.2856162905367677e-02 0.0000000000000000e+00 -6.2856162905367677e-02 2.6698357832616603e-02 0.0000000000000000e+00 0.0000000000000000e+00 0.0000000000000000e+00 0.0000000000000000e+00  1.1448674836035162e+00 -6.3910928541681275e-02 0.0000000000000000e+00 -6.3910928541681275e-02 2.6384147505977142e-02 0.0000000000000000e+00 0.0000000000000000e+00 0.0000000000000000e+00 0.0000000000000000e+00  1.1414569294147536e+00 -6.4821416819673155e-02 0.0000000000000000e+00 -6.4821416819673155e-02 2.5868268981655958e-02 0.0000000000000000e+00 0.0000000000000000e+00 0.0000000000000000e+00 0.0000000000000000e+00  1.1384108930393715e+00 -6.5730471687273598e-02 0.0000000000000000e+00 -6.5730471687273598e-02 2.5588228202395084e-02 0.0000000000000000e+00 0.0000000000000000e+00 0.0000000000000000e+00 0.0000000000000000e+00  1.1347665723293476e+00 -6.6690629297893558e-02 0.0000000000000000e+00 -6.6690629297893558e-02 2.5035391501424489e-02 0.0000000000000000e+00 0.0000000000000000e+00 0.0000000000000000e+00 0.0000000000000000e+00  1.1314841471629535e+00 -6.7553211849467415e-02 0.0000000000000000e+00 -6.7553211849467415e-02 2.4549094463600506e-02 0.0000000000000000e+00 0.0000000000000000e+00 0.0000000000000000e+00 0.0000000000000000e+00  1.1277766131874167e+00 -6.8417996172066703e-02 0.0000000000000000e+00 -6.8417996172066703e-02 2.3994757788655043e-02 0.0000000000000000e+00 0.0000000000000000e+00 0.0000000000000000e+00 0.0000000000000000e+00  1.1243181493613938e+00 -6.9267682896860971e-02 0.0000000000000000e+00 -6.9267682896860971e-02 2.3474362002681829e-02 0.0000000000000000e+00 0.0000000000000000e+00 0.0000000000000000e+00 0.0000000000000000e+00  1.1206897168100514e+00 -7.0029762022083927e-02 0.0000000000000000e+00 -7.0029762022083927e-02 2.2928368434028894e-02 0.0000000000000000e+00 0.0000000000000000e+00 0.0000000000000000e+00 0.0000000000000000e+00  1.1169391084450684e+00 -7.0810118595147784e-02 0.0000000000000000e+00 -7.0810118595147784e-02 2.2375408178330777e-02 0.0000000000000000e+00 0.0000000000000000e+00 0.0000000000000000e+00 0.0000000000000000e+00  1.1134401624528929e+00 -7.1552145333351594e-02 0.0000000000000000e+00 -7.1552145333351594e-02 2.1887284968175203e-02 0.0000000000000000e+00 0.0000000000000000e+00 0.0000000000000000e+00 0.0000000000000000e+00  1.1095877420813123e+00 -7.2269263692346611e-02 0.0000000000000000e+00 -7.2269263692346611e-02 2.1337638977141343e-02 0.0000000000000000e+00 0.0000000000000000e+00 0.0000000000000000e+00 0.0000000000000000e+00  1.1060057548645066e+00 -7.2948927562228399e-02 0.0000000000000000e+00 -7.2948927562228399e-02 2.0715063848850981e-02 0.0000000000000000e+00 0.0000000000000000e+00 0.0000000000000000e+00 0.0000000000000000e+00  1.1022826780656743e+00 -7.3494264779360594e-02 0.0000000000000000e+00 -7.3494264779360594e-02 2.0259099666506953e-02 0.0000000000000000e+00 0.0000000000000000e+00 0.0000000000000000e+00 0.0000000000000000e+00  1.0983456383176473e+00 -7.4076274953741653e-02 0.0000000000000000e+00 -7.4076274953741653e-02 1.9577561735199239e-02 0.0000000000000000e+00 0.0000000000000000e+00 0.0000000000000000e+00 0.0000000000000000e+00  1.0947935377982643e+00 -7.4562888473967540e-02 0.0000000000000000e+00 -7.4562888473967540e-02 1.9125311949836060e-02 0.0000000000000000e+00 0.0000000000000000e+00 0.0000000000000000e+00 0.0000000000000000e+00  1.0906216185773654e+00 -7.5274193484110408e-02 0.0000000000000000e+00 -7.5274193484110408e-02 1.8503037956861475e-02 0.0000000000000000e+00 0.0000000000000000e+00 0.0000000000000000e+00 0.0000000000000000e+00  1.0868269454865416e+00 -7.5884934274300070e-02 0.0000000000000000e+00 -7.5884934274300070e-02 1.7931813371503687e-02 0.0000000000000000e+00 0.0000000000000000e+00 0.0000000000000000e+00 0.0000000000000000e+00  1.0830471224765859e+00 -7.6160985989658439e-02 0.0000000000000000e+00 -7.6160985989658439e-02 1.7493292026911890e-02 0.0000000000000000e+00 0.0000000000000000e+00 0.0000000000000000e+00 0.0000000000000000e+00  1.0793529401248774e+00 -7.6579608144658542e-02 0.0000000000000000e+00 -7.6579608144658542e-02 1.7042272753791853e-02 0.0000000000000000e+00 0.0000000000000000e+00 0.0000000000000000e+00 0.0000000000000000e+00  1.0752963929875927e+00 -7.7271248991395022e-02 0.0000000000000000e+00 -7.7271248991395022e-02 1.6558219117073347e-02 0.0000000000000000e+00 0.0000000000000000e+00 0.0000000000000000e+00 0.0000000000000000e+00  1.0713299725586478e+00 -7.7705885258857035e-02 0.0000000000000000e+00 -7.7705885258857035e-02 1.6133741492779748e-02 0.0000000000000000e+00 0.0000000000000000e+00 0.0000000000000000e+00 0.0000000000000000e+00  1.0674236826121510e+00 -7.8267344522772286e-02 0.0000000000000000e+00 -7.8267344522772286e-02 1.5561082473253617e-02 0.0000000000000000e+00 0.0000000000000000e+00 0.0000000000000000e+00 0.0000000000000000e+00  1.0630778193863002e+00 -7.8874992226501517e-02 0.0000000000000000e+00 -7.8874992226501517e-02 1.5011037334476127e-02 0.0000000000000000e+00 0.0000000000000000e+00 0.0000000000000000e+00 0.0000000000000000e+00  1.0593470542049297e+00 -7.9209320697078950e-02 0.0000000000000000e+00 -7.9209320697078950e-02 1.4433510027179559e-02 0.0000000000000000e+00 0.0000000000000000e+00 0.0000000000000000e+00 0.0000000000000000e+00  1.0549500354525569e+00 -7.9655722869725124e-02 0.0000000000000000e+00 -7.9655722869725124e-02 1.3866144420730355e-02 0.0000000000000000e+00 0.0000000000000000e+00 0.0000000000000000e+00 0.0000000000000000e+00  1.0506987958457530e+00 -8.0085842479880487e-02 0.0000000000000000e+00 -8.0085842479880487e-02 1.3188012832675395e-02 0.0000000000000000e+00 0.0000000000000000e+00 0.0000000000000000e+00 0.0000000000000000e+00  1.0466946776323851e+00 -8.0345417580067122e-02 0.0000000000000000e+00 -8.0345417580067122e-02 1.2622039654228704e-02 0.0000000000000000e+00 0.0000000000000000e+00 0.0000000000000000e+00 0.0000000000000000e+00  1.0423105481888892e+00 -8.0642258392305585e-02 0.0000000000000000e+00 -8.0642258392305585e-02 1.1871104441471821e-02 0.0000000000000000e+00 0.0000000000000000e+00 0.0000000000000000e+00 0.0000000000000000e+00  1.0384401982979679e+00 -8.0861389121487381e-02 0.0000000000000000e+00 -8.0861389121487381e-02 1.1247900572090935e-02 0.0000000000000000e+00 0.0000000000000000e+00 0.0000000000000000e+00 0.0000000000000000e+00  1.0339404106022574e+00 -8.1114990668802039e-02 0.0000000000000000e+00 -8.1114990668802039e-02 1.0582443205680570e-02 0.0000000000000000e+00 0.0000000000000000e+00 0.0000000000000000e+00 0.0000000000000000e+00  1.0299600616215228e+00 -8.1288453546436060e-02 0.0000000000000000e+00 -8.1288453546436060e-02 9.9311917972489932e-03 0.0000000000000000e+00 0.0000000000000000e+00 0.0000000000000000e+00 0.0000000000000000e+00  1.0255678873264298e+00 -8.1514577843910460e-02 0.0000000000000000e+00 -8.1514577843910460e-02 9.2719209253551323e-03 0.0000000000000000e+00 0.0000000000000000e+00 0.0000000000000000e+00 0.0000000000000000e+00  1.0212940013135146e+00 -8.1654429227959263e-02 0.0000000000000000e+00 -8.1654429227959263e-02 8.5903836146488735e-03 0.0000000000000000e+00 0.0000000000000000e+00 0.0000000000000000e+00 0.0000000000000000e+00  1.0171633444144355e+00 -8.1817175731857511e-02 0.0000000000000000e+00 -8.1817175731857511e-02 7.9125527305069828e-03 0.0000000000000000e+00 0.0000000000000000e+00 0.0000000000000000e+00 0.0000000000000000e+00  1.0127111178147974e+00 -8.1909529585108734e-02 0.0000000000000000e+00 -8.1909529585108734e-02 7.2264458000362887e-03 0.0000000000000000e+00 0.0000000000000000e+00 0.0000000000000000e+00 0.0000000000000000e+00  1.0087236549343435e+00 -8.2022498669675384e-02 0.0000000000000000e+00 -8.2022498669675384e-02 6.5805052252350185e-03 0.0000000000000000e+00 0.0000000000000000e+00 0.0000000000000000e+00 0.0000000000000000e+00  1.0042060250132021e+00 -8.1953145528818355e-02 0.0000000000000000e+00 -8.1953145528818355e-02 5.8494631779696009e-03 0.0000000000000000e+00 0.0000000000000000e+00 0.0000000000000000e+00 0.0000000000000000e+00  1.0000653110796320e+00 -8.1964841464184895e-02 0.0000000000000000e+00 -8.1964841464184895e-02 5.2081482630831509e-03 0.0000000000000000e+00 0.0000000000000000e+00 0.0000000000000000e+00 0.0000000000000000e+00  9.9573111800450897e-01 -8.1947259710668546e-02 0.0000000000000000e+00 -8.1947259710668546e-02 4.5174579033897171e-03 0.0000000000000000e+00 0.0000000000000000e+00 0.0000000000000000e+00 0.0000000000000000e+00  9.9134697908914549e-01 -8.1905880702619921e-02 0.0000000000000000e+00 -8.1905880702619921e-02 3.8097937061786712e-03 0.0000000000000000e+00 0.0000000000000000e+00 0.0000000000000000e+00 0.0000000000000000e+00  9.8728411807177707e-01 -8.1878672993749235e-02 0.0000000000000000e+00 -8.1878672993749235e-02 3.1354846471838395e-03 0.0000000000000000e+00 0.0000000000000000e+00 0.0000000000000000e+00 0.0000000000000000e+00  9.8273419188252853e-01 -8.1720630292380469e-02 0.0000000000000000e+00 -8.1720630292380469e-02 2.3951918447576918e-03 0.0000000000000000e+00 0.0000000000000000e+00 0.0000000000000000e+00 0.0000000000000000e+00  9.7869161542293126e-01 -8.1562783386950791e-02 0.0000000000000000e+00 -8.1562783386950791e-02 1.7307553487692789e-03 0.0000000000000000e+00 0.0000000000000000e+00 0.0000000000000000e+00 0.0000000000000000e+00  9.7423834107661123e-01 -8.1459612359365274e-02 0.0000000000000000e+00 -8.1459612359365274e-02 1.0397830022127051e-03 0.0000000000000000e+00 0.