<?xml version="1.0"?>
<VTKFile type="UnstructuredGrid"  version="0.1"  >
<UnstructuredGrid>
<Piece  NumberOfPoints="4276" NumberOfCells="6769">
<Points>
<DataArray  type="Float64"  NumberOfComponents="3"  format="ascii">0 0.01 0  10 0.01 0  0 1.01 0  10 1.01 0  0.007129524987038337 0.009997491741717768 0  0.01258064459049757 0.00999219056738478 0  0.01872173241756402 0.009982708334120727 0  0.02429919625640796 0.009970876572043954 0  0.03017238705920286 0.009955108531615313 0  0.03612352734296466 0.0099356743715591 0  0.04164979236492252 0.009914517792428084 0  0.04780928449023854 0.009887415768096998 0  0.05327287671237849 0.009860276931383746 0  0.0593436395885565 0.009826715421083503 0  0.06505608699933001 0.009791870631895848 0  0.07077243060783153 0.009753845329312128 0  0.07684085351634186 0.009710036052663748 0  0.08230528612367993 0.009667566921662384 0  0.08846525752759338 0.009616276826848907 0  0.09398926586603956 0.0095672187064786 0  0.09994377871281757 0.009511110804477986 0  0.10581288515308 0.009452550633355501 0  0.1113930001121819 0.009393893683773193 0  0.1175326299024069 0.009326020378011352 0  0.122983161250664 0.009262856809916281 0  0.1290978349347763 0.009188765415777931 0  0.1347300222736412 0.00911751981665075 0  0.1405327472005438 0.009041131768776852 0  0.1465421455697866 0.008958856277281909 0  0.1520341809431761 0.008880870879718691 0  0.1581991754706344 0.00879018143976357 0  0.1636834803794234 0.008706732874359017 0  0.1697073563005918 0.008612096527554045 0  0.1754901396361989 0.008518345936558386 0  0.1811391035120075 0.008424050210098115 0  0.1872444279222087 0.00831915423323064 0  0.1926961446341008 0.008222899998379215 0  0.198841090009393 0.008111516418624823 0  0.2044064770158165 0.008008028244452866 0  0.2102948627703611 0.007895869216798803 0  0.2162299794791283 0.007780085801116003 0  0.2217647046821167 0.007669675498109103 0  0.2279204403470532 0.007544154739747676 0  0.2333791472114919 0.007430485124751003 0  0.2394590817234977 0.0073013084386626 0  0.245152498789355 0.007177928079207972 0  0.2508861115607116 0.007051356111670669 0  0.2569419868439766 0.006915186417023598 0  0.2624099649457279 0.006790084113692359 0  0.2685711825796066 0.006646722567663751 0  0.274083748205357 0.006516341894728842 0  0.2800541704182985 0.00637292855786236 0  0.2859022845836161 0.006230279166502627 0  0.291495955429921 0.006091868246150131 0  0.2976275706217687 0.005937986548763313 0  0.3030757324287757 0.005799406374294222 0  0.3091980118239236 0.005641654227187252 0  0.3148109405089491 0.005495191514879527 0  0.3206341933715942 0.005341435282378838 0  0.3266248575896781 0.005181393525330103 0  0.3321252080346692 0.005032833254881577 0  0.3382880718234609 0.004864596209960478 0  0.3437628463580178 0.004713611578807419 0  0.3498021006600692 0.004545443593512952 0  0.3555594631656461 0.004383601001460968 0  0.3612291099056053 0.004222822711549606 0  0.3673210805066339 0.004048576418709386 0  0.3727746135437823 0.003891330909934085 0  0.3789246700786391 0.003712634483246944 0  0.3844721023230384 0.00355025746928806 0  0.3903845048135511 0.003376011435332509 0  0.3962935688476314 0.003200699755406988 0  0.4018430601204535 0.00303505085978487 0  0.4079921977692303 0.002850427660455144 0  0.4134449905916002 0.002685819499171436 0  0.4195385366679084 0.002500937932218923 0  0.425204482428441 0.002328206591247292 0  0.4309651825948974 0.00215183074136113 0  0.4370014133195289 0.001966263547608745 0  0.4424769325836848 0.00179732019881714 0  0.4486395183564056 0.001606544730410899 0  0.4541373275735043 0.001435838569361521 0  0.4601308451156257 0.001249254088784412 0  0.4659488863550298 0.001067707976620331 0  0.471564807260988 0.0008921302908496037 0  0.4776843759254726 0.0007004920228137959 0  0.4831317484445766 0.0005296836585198918 0  0.4892643513384632 0.0003372062279158936 0  0.4948528283485032 0.000161696161435303 0  0.5007056813361916 -2.216943068070812e-05 0  0.5066699093509902 -0.000209526046556915 0  0.5121845298566023 -0.0003826949545447442 0  0.5183439831944545 -0.0005759742926309219 0  0.5238088617282698 -0.0007472800272428554 0  0.5298681543527348 -0.0009369594486414562 0  0.5355929349139432 -0.001115856450691032 0  0.5412927239341832 -0.001293613669039852 0  0.5473668732672543 -0.001482588207084091 0  0.5528259073001393 -0.001651967505962102 0  0.5589819336317072 -0.001842386787779294 0  0.5645100189486582 -0.002012797049529044 0  0.5704524332663232 -0.002195301346534757 0  0.5763298911552834 -0.002375058665203144 0  0.5819006708717119 -0.002544689651648297 0  0.5880413281562127 -0.002730768313747055 0  0.5934904284812221 -0.002895042191696308 0  0.5995995320960693 -0.003078202338538874 0  0.605236779888003 -0.003246210954182579 0  0.6110299855290301 -0.003417806240976177 0  0.6170432999212266 -0.00359472323302265 0  0.6225307972792151 -0.00375505261922207 0  0.6286944373476531 -0.003933803567825084 0  0.6341794289295242 -0.004091634709336539 0  0.6401977648984302 -0.004263413669385436 0  0.6459846030577213 -0.004427148756161272 0  0.6516277670629291 -0.004585409549508515 0  0.6577342305863492 -0.004755038487876419 0  0.6631843111407589 -0.004904958327357115 0  0.6693271588517591 -0.005072208653571043 0  0.6748942591145469 -0.005222152905474348 0  0.6807781354428797 -0.005378892074409919 0  0.6867158102497221 -0.005535201343768038 0  0.6922478556369909 -0.005679100421160843 0  0.6984036264198542 -0.005837205328254034 0  0.7038624132928571 -0.005975584427524931 0  0.7099402809449575 -0.006127588021236129 0  0.7156361945945205 -0.006268012368771779 0  0.7213667017809595 -0.006407263887957157 0  0.7274241898103784 -0.006552202568912044 0  0.7328913375361901 -0.006680980644346233 0  0.7390522654079078 -0.006823736587757829 0  0.7445663161830813 -0.006949337256267011 0  0.7505345306161221 -0.007082931996795786 0  0.7563856967966242 -0.007211490056377221 0  0.7619775509571868 -0.007332073958440476 0  0.7681106054434813 -0.007461725199742056 0  0.7735594228940573 -0.007574589702563127 0  0.7796809699364847 -0.007698739982391196 0  0.7852974086111042 -0.007810142587226769 0  0.7911178568436495 -0.007923025648348906 0  0.797112403703894 -0.008036515862006795 0  0.8026119630288198 -0.008138129173272899 0  0.8087760180262171 -0.008249131188213875 0  0.814253500572072 -0.008345174877796967 0  0.8202905515677629 -0.008448166667805387 0  0.8260544286221699 -0.008543663134562481 0  0.831720415905675 -0.008634807324656511 0  0.8378167080097026 -0.008729817306667463 0  0.8432709709919499 -0.008812108559864256 0  0.8494209576248264 -0.008901791974276371 0  0.8549745826348545 -0.008979924427376591 0  0.8608814329347291 -0.009060026011188804 0  0.8667998142885592 -0.009137155111096256 0  0.8723460990452367 -0.009206568509458774 0  0.8784989383774584 -0.009280301817794542 0  0.8839552890388401 -0.009342788637451834 0  0.8900456692707091 -0.009409293585850673 0  0.8957233874467343 -0.009468190513990782 0  0.9014754209053449 -0.009524786393944277 0  0.9075213579987256 -0.009580921173179099 0  0.9129954731058688 -0.009628765913494807 0  0.9191593188847452 -0.009679229788646495 0  0.9246655330424429 -0.009721240864333262 0  0.9306503084472221 -0.009763603884533442 0  0.9364847200361547 -0.009801580348484516 0  0.9420914259676206 -0.009834972127394636 0  0.948219177636862 -0.009867976960504428 0  0.9536688877131657 -0.009894257783109666 0  0.9597979104438458 -0.009920349306153329 0  0.9654020314719589 -0.009940987600901847 0  0.9712398170272581 -0.009959209624459757 0  0.9772219132298864 -0.009974407121723252 0  0.9827297975109929 -0.009985285083248089 0  0.9888934840407251 -0.009993913310034224 0  0.9943667421923366 -0.009998434045983932 0  1.000414962337846 -0.009999991502249178 0  1.00616395254491 -0.009998125110441144 0  1.011844857354635 -0.009993077234903055 0  1.017933801412069 -0.009984132829796667 0  1.023390946643176 -0.00997301205183276 0  1.029544679732296 -0.009956955598792184 0  1.035089558108845 -0.009939300412459717 0  1.041010936359372 -0.009917116481575694 0  1.04691554237944 -0.00989157814857561 0  1.052471258615448 -0.009864440751261633 0  1.05862104751389 -0.009830897850136421 0  1.064075481579663 -0.009798076706746352 0  1.070173358231585 -0.009757978136698224 0  1.075837941143087 -0.00971752009646258 0  1.081604377355612 -0.009673173917302162 0  1.087640686528322 -0.009623351755525641 0  1.093119387704205 -0.009575135453199036 0  1.099284093826516 -0.009517491101966447 0  1.104783734376909 -0.009463052176492596 0  1.110779897618174 -0.009400480030121557 0  1.116599992234411 -0.00933655469875222 0  1.122217899723542 -0.009271889359757672 0  1.128339818747432 -0.009198135031144493 0  1.133789446190431 -0.00912961705214143 0  1.139923317158062 -0.009049295973540348 0  1.145515844317945 -0.008973134373133167 0  1.151367773813766 -0.008890475161473248 0  1.157336906671575 -0.008803064948780913 0  1.16285160438384 -0.008719557366803981 0  1.16901331600552 -0.008623157866544266 0  1.174481522907442 -0.00853490108265173 0  1.180539122189597 -0.008434191931863186 0  1.186271617394136 -0.008336073959344166 0  1.191966996821913 -0.008235914041393521 0  1.198046448076202 -0.008126091334838595 0  1.203505695906331 -0.008024945109277802 0  1.209661806077474 -0.007908057515838151 0  1.21519584913737 -0.007800455577732041 0  1.221132109188887 -0.00768241304184519 0  1.227019087412133 -0.007562711583992629 0  1.232585135446325 -0.007447155722966398 0  1.238729389023077 -0.007316953404904543 0  1.244180486899644 -0.007199156086382225 0  1.250286093435722 -0.007064709646262071 0  1.255932842016573 -0.006938052500145445 0  1.261716857103797 -0.006806053534187844 0  1.26773845151126 -0.006666245775332091 0  1.273222687278595 -0.006536836953056475 0  1.279386853652711 -0.00638906998029936 0  1.284876650734994 -0.006255450389977176 0  1.290887326898431 -0.00610702037198264 0  1.296685536664392 -0.00596177282270944 0  1.30231949087952 -0.005818744638503708 0  1.308431215520824 -0.005661527839665159 0  
[...]
<PointData  Tensors="Total Stress"> 
<DataArray  type="Float64"  Name="Total Stress"  NumberOfComponents="9" format="ascii">1.2313821838152699e+00 2.6710993138853054e-05 0.0000000000000000e+00 2.6710993138853108e-05 3.9994099537490189e-02 0.0000000000000000e+00 0.0000000000000000e+00 0.0000000000000000e+00 0.0000000000000000e+00  1.2313821838152699e+00 2.6710993138853054e-05 0.0000000000000000e+00 2.6710993138853108e-05 3.9994099537490189e-02 0.0000000000000000e+00 0.0000000000000000e+00 0.0000000000000000e+00 0.0000000000000000e+00  8.8053012299468658e-01 5.8843954467140651e-05 0.0000000000000000e+00 5.8843954467140651e-05 -3.0750243311874013e-03 0.0000000000000000e+00 0.0000000000000000e+00 0.0000000000000000e+00 0.0000000000000000e+00  8.8053012299468658e-01 5.8843954467140651e-05 0.0000000000000000e+00 5.8843954467140651e-05 -3.0750243311874013e-03 0.0000000000000000e+00 0.0000000000000000e+00 0.0000000000000000e+00 0.0000000000000000e+00  1.2313219221089839e+00 -1.9232094236191568e-03 0.0000000000000000e+00 -1.9232094236191568e-03 3.9738994352935895e-02 0.0000000000000000e+00 0.0000000000000000e+00 0.0000000000000000e+00 0.0000000000000000e+00  1.2311907864361211e+00 -3.4025377078799705e-03 0.0000000000000000e+00 -3.4025377078799705e-03 3.9821553518837080e-02 0.0000000000000000e+00 0.0000000000000000e+00 0.0000000000000000e+00 0.0000000000000000e+00  1.2311005610230010e+00 -5.0020950179319179e-03 0.0000000000000000e+00 -5.0020950179319179e-03 3.9920004189540947e-02 0.0000000000000000e+00 0.0000000000000000e+00 0.0000000000000000e+00 0.0000000000000000e+00  1.2307465559317601e+00 -6.5048211432211841e-03 0.0000000000000000e+00 -6.5048211432211841e-03 3.9710674204400422e-02 0.0000000000000000e+00 0.0000000000000000e+00 0.0000000000000000e+00 0.0000000000000000e+00  1.2303386684381512e+00 -8.1027141182756415e-03 0.0000000000000000e+00 -8.1027141182756397e-03 3.9852440403991045e-02 0.0000000000000000e+00 0.0000000000000000e+00 0.0000000000000000e+00 0.0000000000000000e+00  1.2299182566348856e+00 -9.6974163051763151e-03 0.0000000000000000e+00 -9.6974163051763203e-03 3.9668684065549950e-02 0.0000000000000000e+00 0.0000000000000000e+00 0.0000000000000000e+00 0.0000000000000000e+00  1.2294460701438858e+00 -1.1175581031082646e-02 0.0000000000000000e+00 -1.1175581031082646e-02 3.9706093774713187e-02 0.0000000000000000e+00 0.0000000000000000e+00 0.0000000000000000e+00 0.0000000000000000e+00  1.2287983405077261e+00 -1.2852300763326377e-02 0.0000000000000000e+00 -1.2852300763326377e-02 3.9580722895022229e-02 0.0000000000000000e+00 0.0000000000000000e+00 0.0000000000000000e+00 0.0000000000000000e+00  1.2281760155907351e+00 -1.4344760978041850e-02 0.0000000000000000e+00 -1.4344760978041847e-02 3.9464780710622663e-02 0.0000000000000000e+00 0.0000000000000000e+00 0.0000000000000000e+00 0.0000000000000000e+00  1.2273838798320402e+00 -1.5944517360657495e-02 0.0000000000000000e+00 -1.5944517360657495e-02 3.9339907835363293e-02 0.0000000000000000e+00 0.0000000000000000e+00 0.0000000000000000e+00 0.0000000000000000e+00  1.2265401609524555e+00 -1.7492061603154731e-02 0.0000000000000000e+00 -1.7492061603154731e-02 3.9197844292985062e-02 0.0000000000000000e+00 0.0000000000000000e+00 0.0000000000000000e+00 0.0000000000000000e+00  1.2256631230642714e+00 -1.8969254065568469e-02 0.0000000000000000e+00 -1.8969254065568469e-02 3.9060904429929266e-02 0.0000000000000000e+00 0.0000000000000000e+00 0.0000000000000000e+00 0.0000000000000000e+00  1.2246506461527609e+00 -2.0527686439745656e-02 0.0000000000000000e+00 -2.0527686439745656e-02 3.8986517167207468e-02 0.0000000000000000e+00 0.0000000000000000e+00 0.0000000000000000e+00 0.0000000000000000e+00  1.2234814069415181e+00 -2.1998578923893793e-02 0.0000000000000000e+00 -2.1998578923893793e-02 3.8679688306929229e-02 0.0000000000000000e+00 0.0000000000000000e+00 0.0000000000000000e+00 0.0000000000000000e+00  1.2224917826211426e+00 -2.3560741299094808e-02 0.0000000000000000e+00 -2.3560741299094808e-02 3.8681092243868835e-02 0.0000000000000000e+00 0.0000000000000000e+00 0.0000000000000000e+00 0.0000000000000000e+00  1.2210950585228115e+00 -2.4999477401042320e-02 0.0000000000000000e+00 -2.4999477401042317e-02 3.8301578544156237e-02 0.0000000000000000e+00 0.0000000000000000e+00 0.0000000000000000e+00 0.0000000000000000e+00  1.2200215616785977e+00 -2.6504862827223658e-02 0.0000000000000000e+00 -2.6504862827223669e-02 3.8260965234379010e-02 0.0000000000000000e+00 0.0000000000000000e+00 0.0000000000000000e+00 0.0000000000000000e+00  1.2184832836435830e+00 -2.7945221222685661e-02 0.0000000000000000e+00 -2.7945221222685661e-02 3.8013056851045918e-02 0.0000000000000000e+00 0.0000000000000000e+00 0.0000000000000000e+00 0.0000000000000000e+00  1.2172673160275349e+00 -2.9396921071236700e-02 0.0000000000000000e+00 -2.9396921071236700e-02 3.8001506854334920e-02 0.0000000000000000e+00 0.0000000000000000e+00 0.0000000000000000e+00 0.0000000000000000e+00  1.2157140574750054e+00 -3.0904960613923393e-02 0.0000000000000000e+00 -3.0904960613923393e-02 3.7794931596309693e-02 0.0000000000000000e+00 0.0000000000000000e+00 0.0000000000000000e+00 0.0000000000000000e+00  1.2141309942611163e+00 -3.2263330541240469e-02 0.0000000000000000e+00 -3.2263330541240469e-02 3.7460106283417866e-02 0.0000000000000000e+00 0.0000000000000000e+00 0.0000000000000000e+00 0.0000000000000000e+00  1.2125779128991148e+00 -3.3722282511086506e-02 0.0000000000000000e+00 -3.3722282511086506e-02 3.7414762177760519e-02 0.0000000000000000e+00 0.0000000000000000e+00 0.0000000000000000e+00 0.0000000000000000e+00  1.2107644468531911e+00 -3.5200885360774620e-02 0.0000000000000000e+00 -3.5200885360774620e-02 3.7131353742881526e-02 0.0000000000000000e+00 0.0000000000000000e+00 0.0000000000000000e+00 0.0000000000000000e+00  1.2088655403751054e+00 -3.6609638203104575e-02 0.0000000000000000e+00 -3.6609638203104575e-02 3.6785104385536116e-02 0.0000000000000000e+00 0.0000000000000000e+00 0.0000000000000000e+00 0.0000000000000000e+00  1.2069554149643460e+00 -3.8030452958856244e-02 0.0000000000000000e+00 -3.8030452958856244e-02 3.6496661920829725e-02 0.0000000000000000e+00 0.0000000000000000e+00 0.0000000000000000e+00 0.0000000000000000e+00  1.2051850689411288e+00 -3.9314559131715318e-02 0.0000000000000000e+00 -3.9314559131715318e-02 3.6337872329527329e-02 0.0000000000000000e+00 0.0000000000000000e+00 0.0000000000000000e+00 0.0000000000000000e+00  1.2030894055382686e+00 -4.0753747452817360e-02 0.0000000000000000e+00 -4.0753747452817360e-02 3.6052774931134700e-02 0.0000000000000000e+00 0.0000000000000000e+00 0.0000000000000000e+00 0.0000000000000000e+00  1.2010478560543139e+00 -4.2029063558430141e-02 0.0000000000000000e+00 -4.2029063558430141e-02 3.5679131335798274e-02 0.0000000000000000e+00 0.0000000000000000e+00 0.0000000000000000e+00 0.0000000000000000e+00  1.1989255424422922e+00 -4.3366692265579411e-02 0.0000000000000000e+00 -4.3366692265579411e-02 3.5472191708119161e-02 0.0000000000000000e+00 0.0000000000000000e+00 0.0000000000000000e+00 0.0000000000000000e+00  1.1967362003249400e+00 -4.4693944852547539e-02 0.0000000000000000e+00 -4.4693944852547539e-02 3.5144310152335309e-02 0.0000000000000000e+00 0.0000000000000000e+00 0.0000000000000000e+00 0.0000000000000000e+00  1.1946386913618345e+00 -4.5920205114841316e-02 0.0000000000000000e+00 -4.5920205114841316e-02 3.4962358857061157e-02 0.0000000000000000e+00 0.0000000000000000e+00 0.0000000000000000e+00 0.0000000000000000e+00  1.1920944628183530e+00 -4.7332671133656981e-02 0.0000000000000000e+00 -4.7332671133656981e-02 3.4559420645872370e-02 0.0000000000000000e+00 0.0000000000000000e+00 0.0000000000000000e+00 0.0000000000000000e+00  1.1900111241849003e+00 -4.8557654925151190e-02 0.0000000000000000e+00 -4.8557654925151190e-02 3.4360630538679930e-02 0.0000000000000000e+00 0.0000000000000000e+00 0.0000000000000000e+00 0.0000000000000000e+00  1.1873272173415295e+00 -4.9817399550328156e-02 0.0000000000000000e+00 -4.9817399550328156e-02 3.4045722782024293e-02 0.0000000000000000e+00 0.0000000000000000e+00 0.0000000000000000e+00 0.0000000000000000e+00  1.1848228623069781e+00 -5.1012769166093153e-02 0.0000000000000000e+00 -5.1012769166093166e-02 3.3678184811033900e-02 0.0000000000000000e+00 0.0000000000000000e+00 0.0000000000000000e+00 0.0000000000000000e+00  1.1822316535167259e+00 -5.2335274351435417e-02 0.0000000000000000e+00 -5.2335274351435417e-02 3.3341798886340000e-02 0.0000000000000000e+00 0.0000000000000000e+00 0.0000000000000000e+00 0.0000000000000000e+00  1.1794859316969264e+00 -5.3559120092414203e-02 0.0000000000000000e+00 -5.3559120092414203e-02 3.3002626139220385e-02 0.0000000000000000e+00 0.0000000000000000e+00 0.0000000000000000e+00 0.0000000000000000e+00  1.1769431265886241e+00 -5.4641798083214801e-02 0.0000000000000000e+00 -5.4641798083214801e-02 3.2685208813195414e-02 0.0000000000000000e+00 0.0000000000000000e+00 0.0000000000000000e+00 0.0000000000000000e+00  1.1741279650578940e+00 -5.5850980301234081e-02 0.0000000000000000e+00 -5.5850980301234081e-02 3.2298981060965487e-02 0.0000000000000000e+00 0.0000000000000000e+00 0.0000000000000000e+00 0.0000000000000000e+00  1.1714742225748349e+00 -5.6986688363277041e-02 0.0000000000000000e+00 -5.6986688363277041e-02 3.1964072957164788e-02 0.0000000000000000e+00 0.0000000000000000e+00 0.0000000000000000e+00 0.0000000000000000e+00  1.1684470993149256e+00 -5.8133949356013848e-02 0.0000000000000000e+00 -5.8133949356013848e-02 3.1599125884678586e-02 0.0000000000000000e+00 0.0000000000000000e+00 0.0000000000000000e+00 0.0000000000000000e+00  1.1655872249925463e+00 -5.9253618634657480e-02 0.0000000000000000e+00 -5.9253618634657501e-02 3.1193581804761374e-02 0.0000000000000000e+00 0.0000000000000000e+00 0.0000000000000000e+00 0.0000000000000000e+00  1.1626601884945298e+00 -6.0419015813863108e-02 0.0000000000000000e+00 -6.0419015813863122e-02 3.0798266931674333e-02 0.0000000000000000e+00 0.0000000000000000e+00 0.0000000000000000e+00 0.0000000000000000e+00  1.1594955966178961e+00 -6.1509154246912744e-02 0.0000000000000000e+00 -6.1509154246912744e-02 3.0341761119091284e-02 0.0000000000000000e+00 0.0000000000000000e+00 0.0000000000000000e+00 0.0000000000000000e+00  1.1565941954623780e+00 -6.2524980191686577e-02 0.0000000000000000e+00 -6.2524980191686577e-02 2.9926281768895391e-02 0.0000000000000000e+00 0.0000000000000000e+00 0.0000000000000000e+00 0.0000000000000000e+00  1.1532480643946192e+00 -6.3615575796049081e-02 0.0000000000000000e+00 -6.3615575796049081e-02 2.9474907669815656e-02 0.0000000000000000e+00 0.0000000000000000e+00 0.0000000000000000e+00 0.0000000000000000e+00  1.1502136777261709e+00 -6.4575510002119738e-02 0.0000000000000000e+00 -6.4575510002119738e-02 2.9048101729123327e-02 0.0000000000000000e+00 0.0000000000000000e+00 0.0000000000000000e+00 0.0000000000000000e+00  1.1468525490099075e+00 -6.5610668843299288e-02 0.0000000000000000e+00 -6.5610668843299288e-02 2.8579954221289974e-02 0.0000000000000000e+00 0.0000000000000000e+00 0.0000000000000000e+00 0.0000000000000000e+00  1.1434361507680249e+00 -6.6561521072989641e-02 0.0000000000000000e+00 -6.6561521072989641e-02 2.8006733855826180e-02 0.0000000000000000e+00 0.0000000000000000e+00 0.0000000000000000e+00 0.0000000000000000e+00  1.1402836066991098e+00 -6.7460458952303640e-02 0.0000000000000000e+00 -6.7460458952303640e-02 2.7626075506082079e-02 0.0000000000000000e+00 0.0000000000000000e+00 0.0000000000000000e+00 0.0000000000000000e+00  1.1366430992131049e+00 -6.8464890803186920e-02 0.0000000000000000e+00 -6.8464890803186920e-02 2.7098568739726554e-02 0.0000000000000000e+00 0.0000000000000000e+00 0.0000000000000000e+00 0.0000000000000000e+00  1.1333943967044817e+00 -6.9337067862373508e-02 0.0000000000000000e+00 -6.9337067862373522e-02 2.6623292018795545e-02 0.0000000000000000e+00 0.0000000000000000e+00 0.0000000000000000e+00 0.0000000000000000e+00  1.1296689526947874e+00 -7.0230367120296525e-02 0.0000000000000000e+00 -7.0230367120296511e-02 2.6099166746124874e-02 0.0000000000000000e+00 0.0000000000000000e+00 0.0000000000000000e+00 0.0000000000000000e+00  1.1262047932678549e+00 -7.1073236760474584e-02 0.0000000000000000e+00 -7.1073236760474570e-02 2.5582090558452220e-02 0.0000000000000000e+00 0.0000000000000000e+00 0.0000000000000000e+00 0.0000000000000000e+00  1.1225710793232007e+00 -7.1941220896238778e-02 0.0000000000000000e+00 -7.1941220896238778e-02 2.5028908957478530e-02 0.0000000000000000e+00 0.0000000000000000e+00 0.0000000000000000e+00 0.0000000000000000e+00  1.1187849967692656e+00 -7.2740777353761790e-02 0.0000000000000000e+00 -7.2740777353761790e-02 2.4441294805893798e-02 0.0000000000000000e+00 0.0000000000000000e+00 0.0000000000000000e+00 0.0000000000000000e+00  1.1153068509482256e+00 -7.3460890992056160e-02 0.0000000000000000e+00 -7.3460890992056160e-02 2.3913379104864796e-02 0.0000000000000000e+00 0.0000000000000000e+00 0.0000000000000000e+00 0.0000000000000000e+00  1.1113444423861436e+00 -7.4269735083550531e-02 0.0000000000000000e+00 -7.4269735083550531e-02 2.3312418967999054e-02 0.0000000000000000e+00 0.0000000000000000e+00 0.0000000000000000e+00 0.0000000000000000e+00  1.1077742479254644e+00 -7.4945463850245003e-02 0.0000000000000000e+00 -7.4945463850245003e-02 2.2756133950235000e-02 0.0000000000000000e+00 0.0000000000000000e+00 0.0000000000000000e+00 0.0000000000000000e+00  1.1038469346544537e+00 -7.5647278959865366e-02 0.0000000000000000e+00 -7.5647278959865366e-02 2.2179807935129844e-02 0.0000000000000000e+00 0.0000000000000000e+00 0.0000000000000000e+00 0.0000000000000000e+00  1.0999856385858926e+00 -7.6348036818108422e-02 0.0000000000000000e+00 -7.6348036818108422e-02 2.1573731059812286e-02 0.0000000000000000e+00 0.0000000000000000e+00 0.0000000000000000e+00 0.0000000000000000e+00  1.0962500855351940e+00 -7.6981007661566278e-02 0.0000000000000000e+00 -7.6981007661566278e-02 2.1037079530550243e-02 0.0000000000000000e+00 0.0000000000000000e+00 0.0000000000000000e+00 0.0000000000000000e+00  1.0921160239202501e+00 -7.7636965493438403e-02 0.0000000000000000e+00 -7.7636965493438403e-02 2.0395016794195382e-02 0.0000000000000000e+00 0.0000000000000000e+00 0.0000000000000000e+00 0.0000000000000000e+00  1.0883612187485805e+00 -7.8236550482705558e-02 0.0000000000000000e+00 -7.8236550482705558e-02 1.9800823481615770e-02 0.0000000000000000e+00 0.0000000000000000e+00 0.0000000000000000e+00 0.0000000000000000e+00  1.0841235167905121e+00 -7.8822453933417691e-02 0.0000000000000000e+00 -7.8822453933417691e-02 1.9110853441662193e-02 0.0000000000000000e+00 0.0000000000000000e+00 0.0000000000000000e+00 0.0000000000000000e+00  1.0802468512605767e+00 -7.9370906919675993e-02 0.0000000000000000e+00 -7.9370906919675993e-02 1.8483144340203234e-02 0.0000000000000000e+00 0.0000000000000000e+00 0.0000000000000000e+00 0.0000000000000000e+00  1.0760990752821333e+00 -7.9870240664685524e-02 0.0000000000000000e+00 -7.9870240664685524e-02 1.7813153092114731e-02 0.0000000000000000e+00 0.0000000000000000e+00 0.0000000000000000e+00 0.0000000000000000e+00  1.0719298837213485e+00 -8.0354328007071207e-02 0.0000000000000000e+00 -8.0354328007071207e-02 1.7126277604182429e-02 0.0000000000000000e+00 0.0000000000000000e+00 0.0000000000000000e+00 0.0000000000000000e+00  1.0679575030557977e+00 -8.0801325682532371e-02 0.0000000000000000e+00 -8.0801325682532371e-02 1.6467121661198181e-02 0.0000000000000000e+00 0.0000000000000000e+00 0.0000000000000000e+00 0.0000000000000000e+00  1.0635562314200193e+00 -8.1208872320592831e-02 0.0000000000000000e+00 -8.1208872320592831e-02 1.5722107392009507e-02 0.0000000000000000e+00 0.0000000000000000e+00 0.0000000000000000e+00 0.0000000000000000e+00  1.0596672884625826e+00 -8.1541891377635109e-02 0.0000000000000000e+00 -8.1541891377635109e-02 1.5095875911929721e-02 0.0000000000000000e+00 0.0000000000000000e+00 0.0000000000000000e+00 0.0000000000000000e+00  1.0553829472714844e+00 -8.1917923527121100e-02 0.0000000000000000e+00 -8.1917923527121100e-02 1.4462238309970938e-02 0.0000000000000000e+00 0.0000000000000000e+00 0.0000000000000000e+00 0.0000000000000000e+00  1.0512964414422850e+00 -8.2279001184940942e-02 0.0000000000000000e+00 -8.2279001184940942e-02 1.3822021863317362e-02 0.0000000000000000e+00 0.0000000000000000e+00 0.0000000000000000e+00 0.0000000000000000e+00  1.0471479038278344e+00 -8.2574590787512336e-02 0.0000000000000000e+00 -8.2574590787512336e-02 1.3185257576517496e-02 0.0000000000000000e+00 0.0000000000000000e+00 0.0000000000000000e+00 0.0000000000000000e+00  1.0427490085790121e+00 -8.2928332227945850e-02 0.0000000000000000e+00 -8.2928332227945850e-02 1.2468781282853576e-02 0.0000000000000000e+00 0.0000000000000000e+00 0.0000000000000000e+00 0.0000000000000000e+00  1.0387610260057261e+00 -8.3173559376394784e-02 0.0000000000000000e+00 -8.3173559376394784e-02 1.1866641624605347e-02 0.0000000000000000e+00 0.0000000000000000e+00 0.0000000000000000e+00 0.0000000000000000e+00  1.0342992965139250e+00 -8.3448540468916380e-02 0.0000000000000000e+00 -8.3448540468916380e-02 1.1134625132663457e-02 0.0000000000000000e+00 0.0000000000000000e+00 0.0000000000000000e+00 0.0000000000000000e+00  1.0302021807601138e+00 -8.3692043922482959e-02 0.0000000000000000e+00 -8.3692043922482959e-02 1.0434835931054376e-02 0.0000000000000000e+00 0.0000000000000000e+00 0.0000000000000000e+00 0.0000000000000000e+00  1.0257459633563610e+00 -8.3881887518121950e-02 0.0000000000000000e+00 -8.3881887518121950e-02 9.6780066469683342e-03 0.0000000000000000e+00 0.0000000000000000e+00 0.0000000000000000e+00 0.0000000000000000e+00  1.0214195689373047e+00 -8.3993169688483776e-02 0.0000000000000000e+00 -8.3993169688483776e-02 8.9317514050022626e-03 0.0000000000000000e+00 0.0000000000000000e+00 0.0000000000000000e+00 0.0000000000000000e+00  1.0172872415869143e+00 -8.4127732840548516e-02 0.0000000000000000e+00 -8.4127732840548516e-02 8.2577855741566980e-03 0.0000000000000000e+00 0.0000000000000000e+00 0.0000000000000000e+00 0.0000000000000000e+00  1.0126650322436332e+00 -8.4258786855093470e-02 0.0000000000000000e+00 -8.4258786855093470e-02 7.4518403241855486e-03 0.0000000000000000e+00 0.0000000000000000e+00 0.0000000000000000e+00 0.0000000000000000e+00  1.0086360145702982e+00 -8.4278078388730360e-02 0.0000000000000000e+00 -8.4278078388730346e-02 6.7515604464583046e-03 0.0000000000000000e+00 0.0000000000000000e+00 0.0000000000000000e+00 0.0000000000000000e+00  1.0040306554728922e+00 -8.4305344107948904e-02 0.0000000000000000e+00 -8.4305344107948904e-02 5.9734595678899690e-03 0.0000000000000000e+00 0.0000000000000000e+00 0.0000000000000000e+00 0.0000000000000000e+00  9.9982783401762465e-01 -8.4360360354012426e-02 0.0000000000000000e+00 -8.4360360354012426e-02 5.2638377616517230e-03 0.0000000000000000e+00 0.0000000000000000e+00 0.0000000000000000e+00 0.0000000000000000e+00  9.9543449875213752e-01 -8.4336418791812334e-02 0.0000000000000000e+00 -8.4336418791812334e-02 4.4976611116176336e-03 0.0000000000000000e+00 0.0000000000000000e+00 0.0000000000000000e+00 0.0000000000000000e+00  9.9098686214813980e-01 -8.4313891379176886e-02 0.0000000000000000e+00 -8.4313891379176886e-02 3.7301898907634730e-03 0.0000000000000000e+00 0.0000000000000000e+00 0.0000000000000000e+00 0.0000000000000000e+00  9.8685038633002642e-01 -8.4286311898694510e-02 0.0000000000000000e+00 -8.4286311898694510e-02 3.0032148325136788e-03 0.0000000000000000e+00 0.0000000000000000e+00 0.0000000000000000e+00 0.0000000000000000e+00  9.8220164312221758e-01 -8.4130319442633966e-02 0.0000000000000000e+00 -8.4130319442633966e-02 2.1666827719459092e-03 0.0000000000000000e+00 0.0000000000000000e+00 0.0000000000000000e+00 0.0000000000000000e+00  9.7809896611719827e-01 -8.3979435403513950e-02 0.0000000000000000e+00 -8.3979435403513950e-02 1.4064174190517888e-03 0.0000000000000000e+00 0.0000000000000000e+00 0.0000000000000000e+00 0.0000000000000000e+00  9.7356835960165689e-01 -8.3883437244690981e-02 0.0000000000000000e+00 -8.3883437244690981e-02 6.3372462963862098e-04 0.0000000000000000e+00 0.