<?xml version="1.0"?>
<VTKFile type="UnstructuredGrid"  version="0.1"  >
<UnstructuredGrid>
<Piece  NumberOfPoints="4276" NumberOfCells="6768">
<Points>
<DataArray  type="Float64"  NumberOfComponents="3"  format="ascii">0 0.01 0  10 0.01 0  0 1.025541181621114 0  10 1.025541181621114 0  0.007129524987038337 0.009997491741717768 0  0.01258064459049757 0.00999219056738478 0  0.01872173241756402 0.009982708334120727 0  0.02429919625640796 0.009970876572043954 0  0.03017238705920286 0.009955108531615313 0  0.03612352734296466 0.0099356743715591 0  0.04164979236492252 0.009914517792428084 0  0.04780928449023854 0.009887415768096998 0  0.05327287671237849 0.009860276931383746 0  0.0593436395885565 0.009826715421083503 0  0.06505608699933001 0.009791870631895848 0  0.07077243060783153 0.009753845329312128 0  0.07684085351634186 0.009710036052663748 0  0.08230528612367993 0.009667566921662384 0  0.08846525752759338 0.009616276826848907 0  0.09398926586603956 0.0095672187064786 0  0.09994377871281757 0.009511110804477986 0  0.10581288515308 0.009452550633355501 0  0.1113930001121819 0.009393893683773193 0  0.1175326299024069 0.009326020378011352 0  0.122983161250664 0.009262856809916281 0  0.1290978349347763 0.009188765415777931 0  0.1347300222736412 0.00911751981665075 0  0.1405327472005438 0.009041131768776852 0  0.1465421455697866 0.008958856277281909 0  0.1520341809431761 0.008880870879718691 0  0.1581991754706344 0.00879018143976357 0  0.1636834803794234 0.008706732874359017 0  0.1697073563005918 0.008612096527554045 0  0.1754901396361989 0.008518345936558386 0  0.1811391035120075 0.008424050210098115 0  0.1872444279222087 0.00831915423323064 0  0.1926961446341008 0.008222899998379215 0  0.198841090009393 0.008111516418624823 0  0.2044064770158165 0.008008028244452866 0  0.2102948627703611 0.007895869216798803 0  0.2162299794791283 0.007780085801116003 0  0.2217647046821167 0.007669675498109103 0  0.2279204403470532 0.007544154739747676 0  0.2333791472114919 0.007430485124751003 0  0.2394590817234977 0.0073013084386626 0  0.245152498789355 0.007177928079207972 0  0.2508861115607116 0.007051356111670669 0  0.2569419868439766 0.006915186417023598 0  0.2624099649457279 0.006790084113692359 0  0.2685711825796066 0.006646722567663751 0  0.274083748205357 0.006516341894728842 0  0.2800541704182985 0.00637292855786236 0  0.2859022845836161 0.006230279166502627 0  0.291495955429921 0.006091868246150131 0  0.2976275706217687 0.005937986548763313 0  0.3030757324287757 0.005799406374294222 0  0.3091980118239236 0.005641654227187252 0  0.3148109405089491 0.005495191514879527 0  0.3206341933715942 0.005341435282378838 0  0.3266248575896781 0.005181393525330103 0  0.3321252080346692 0.005032833254881577 0  0.3382880718234609 0.004864596209960478 0  0.3437628463580178 0.004713611578807419 0  0.3498021006600692 0.004545443593512952 0  0.3555594631656461 0.004383601001460968 0  0.3612291099056053 0.004222822711549606 0  0.3673210805066339 0.004048576418709386 0  0.3727746135437823 0.003891330909934085 0  0.3789246700786391 0.003712634483246944 0  0.3844721023230384 0.00355025746928806 0  0.3903845048135511 0.003376011435332509 0  0.3962935688476314 0.003200699755406988 0  0.4018430601204535 0.00303505085978487 0  0.4079921977692303 0.002850427660455144 0  0.4134449905916002 0.002685819499171436 0  0.4195385366679084 0.002500937932218923 0  0.425204482428441 0.002328206591247292 0  0.4309651825948974 0.00215183074136113 0  0.4370014133195289 0.001966263547608745 0  0.4424769325836848 0.00179732019881714 0  0.4486395183564056 0.001606544730410899 0  0.4541373275735043 0.001435838569361521 0  0.4601308451156257 0.001249254088784412 0  0.4659488863550298 0.001067707976620331 0  0.471564807260988 0.0008921302908496037 0  0.4776843759254726 0.0007004920228137959 0  0.4831317484445766 0.0005296836585198918 0  0.4892643513384632 0.0003372062279158936 0  0.4948528283485032 0.000161696161435303 0  0.5007056813361916 -2.216943068070812e-05 0  0.5066699093509902 -0.000209526046556915 0  0.5121845298566023 -0.0003826949545447442 0  0.5183439831944545 -0.0005759742926309219 0  0.5238088617282698 -0.0007472800272428554 0  0.5298681543527348 -0.0009369594486414562 0  0.5355929349139432 -0.001115856450691032 0  0.5412927239341832 -0.001293613669039852 0  0.5473668732672543 -0.001482588207084091 0  0.5528259073001393 -0.001651967505962102 0  0.5589819336317072 -0.001842386787779294 0  0.5645100189486582 -0.002012797049529044 0  0.5704524332663232 -0.002195301346534757 0  0.5763298911552834 -0.002375058665203144 0  0.5819006708717119 -0.002544689651648297 0  0.5880413281562127 -0.002730768313747055 0  0.5934904284812221 -0.002895042191696308 0  0.5995995320960693 -0.003078202338538874 0  0.605236779888003 -0.003246210954182579 0  0.6110299855290301 -0.003417806240976177 0  0.6170432999212266 -0.00359472323302265 0  0.6225307972792151 -0.00375505261922207 0  0.6286944373476531 -0.003933803567825084 0  0.6341794289295242 -0.004091634709336539 0  0.6401977648984302 -0.004263413669385436 0  0.6459846030577213 -0.004427148756161272 0  0.6516277670629291 -0.004585409549508515 0  0.6577342305863492 -0.004755038487876419 0  0.6631843111407589 -0.004904958327357115 0  0.6693271588517591 -0.005072208653571043 0  0.6748942591145469 -0.005222152905474348 0  0.6807781354428797 -0.005378892074409919 0  0.6867158102497221 -0.005535201343768038 0  0.6922478556369909 -0.005679100421160843 0  0.6984036264198542 -0.005837205328254034 0  0.7038624132928571 -0.005975584427524931 0  0.7099402809449575 -0.006127588021236129 0  0.7156361945945205 -0.006268012368771779 0  0.7213667017809595 -0.006407263887957157 0  0.7274241898103784 -0.006552202568912044 0  0.7328913375361901 -0.006680980644346233 0  0.7390522654079078 -0.006823736587757829 0  0.7445663161830813 -0.006949337256267011 0  0.7505345306161221 -0.007082931996795786 0  0.7563856967966242 -0.007211490056377221 0  0.7619775509571868 -0.007332073958440476 0  0.7681106054434813 -0.007461725199742056 0  0.7735594228940573 -0.007574589702563127 0  0.7796809699364847 -0.007698739982391196 0  0.7852974086111042 -0.007810142587226769 0  0.7911178568436495 -0.007923025648348906 0  0.797112403703894 -0.008036515862006795 0  0.8026119630288198 -0.008138129173272899 0  0.8087760180262171 -0.008249131188213875 0  0.814253500572072 -0.008345174877796967 0  0.8202905515677629 -0.008448166667805387 0  0.8260544286221699 -0.008543663134562481 0  0.831720415905675 -0.008634807324656511 0  0.8378167080097026 -0.008729817306667463 0  0.8432709709919499 -0.008812108559864256 0  0.8494209576248264 -0.008901791974276371 0  0.8549745826348545 -0.008979924427376591 0  0.8608814329347291 -0.009060026011188804 0  0.8667998142885592 -0.009137155111096256 0  0.8723460990452367 -0.009206568509458774 0  0.8784989383774584 -0.009280301817794542 0  0.8839552890388401 -0.009342788637451834 0  0.8900456692707091 -0.009409293585850673 0  0.8957233874467343 -0.009468190513990782 0  0.9014754209053449 -0.009524786393944277 0  0.9075213579987256 -0.009580921173179099 0  0.9129954731058688 -0.009628765913494807 0  0.9191593188847452 -0.009679229788646495 0  0.9246655330424429 -0.009721240864333262 0  0.9306503084472221 -0.009763603884533442 0  0.9364847200361547 -0.009801580348484516 0  0.9420914259676206 -0.009834972127394636 0  0.948219177636862 -0.009867976960504428 0  0.9536688877131657 -0.009894257783109666 0  0.9597979104438458 -0.009920349306153329 0  0.9654020314719589 -0.009940987600901847 0  0.9712398170272581 -0.009959209624459757 0  0.9772219132298864 -0.009974407121723252 0  0.9827297975109929 -0.009985285083248089 0  0.9888934840407251 -0.009993913310034224 0  0.9943667421923366 -0.009998434045983932 0  1.000414962337846 -0.009999991502249178 0  1.00616395254491 -0.009998125110441144 0  1.011844857354635 -0.009993077234903055 0  1.017933801412069 -0.009984132829796667 0  1.023390946643176 -0.00997301205183276 0  1.029544679732296 -0.009956955598792184 0  1.035089558108845 -0.009939300412459717 0  1.041010936359372 -0.009917116481575694 0  1.04691554237944 -0.00989157814857561 0  1.052471258615448 -0.009864440751261633 0  1.05862104751389 -0.009830897850136421 0  1.064075481579663 -0.009798076706746352 0  1.070173358231585 -0.009757978136698224 0  1.075837941143087 -0.00971752009646258 0  1.081604377355612 -0.009673173917302162 0  1.087640686528322 -0.009623351755525641 0  1.093119387704205 -0.009575135453199036 0  1.099284093826516 -0.009517491101966447 0  1.104783734376909 -0.009463052176492596 0  1.110779897618174 -0.009400480030121557 0  1.116599992234411 -0.00933655469875222 0  1.122217899723542 -0.009271889359757672 0  1.128339818747432 -0.009198135031144493 0  1.133789446190431 -0.00912961705214143 0  1.139923317158062 -0.009049295973540348 0  1.145515844317945 -0.008973134373133167 0  1.151367773813766 -0.008890475161473248 0  1.157336906671575 -0.008803064948780913 0  1.16285160438384 -0.008719557366803981 0  1.16901331600552 -0.008623157866544266 0  1.174481522907442 -0.00853490108265173 0  1.180539122189597 -0.008434191931863186 0  1.186271617394136 -0.008336073959344166 0  1.191966996821913 -0.008235914041393521 0  1.198046448076202 -0.008126091334838595 0  1.203505695906331 -0.008024945109277802 0  1.209661806077474 -0.007908057515838151 0  1.21519584913737 -0.007800455577732041 0  1.221132109188887 -0.00768241304184519 0  1.227019087412133 -0.007562711583992629 0  1.232585135446325 -0.007447155722966398 0  1.238729389023077 -0.007316953404904543 0  1.244180486899644 -0.007199156086382225 0  1.250286093435722 -0.007064709646262071 0  1.255932842016573 -0.006938052500145445 0  1.261716857103797 -0.006806053534187844 0  1.26773845151126 -0.006666245775332091 0  1.273222687278595 -0.006536836953056475 0  1.279386853652711 -0.00638906998029936 0  1.284876650734994 -0.006255450389977176 0  1.290887326898431 -0.00610702037198264 0  1.296685536664392 -0.00596177282270944 0  1.30231949087952 -0.005818744638503708 0  1.308431215520824
[...]
<PointData  Tensors="Total Stress"> 
<DataArray  type="Float64"  Name="Total Stress"  NumberOfComponents="9" format="ascii">1.2190064427891720e+00 -2.1338345387086689e-05 0.0000000000000000e+00 -2.1338345387086689e-05 2.7567000252274071e-02 0.0000000000000000e+00 0.0000000000000000e+00 0.0000000000000000e+00 0.0000000000000000e+00  1.2190064427891720e+00 -2.1338345387086689e-05 0.0000000000000000e+00 -2.1338345387086689e-05 2.7567000252274071e-02 0.0000000000000000e+00 0.0000000000000000e+00 0.0000000000000000e+00 0.0000000000000000e+00  7.9553356513675022e-01 7.8003193294256542e-05 0.0000000000000000e+00 7.8003193294256542e-05 -4.3691323355639234e-03 0.0000000000000000e+00 0.0000000000000000e+00 0.0000000000000000e+00 0.0000000000000000e+00  7.9553356513675022e-01 7.8003193294256542e-05 0.0000000000000000e+00 7.8003193294256542e-05 -4.3691323355639234e-03 0.0000000000000000e+00 0.0000000000000000e+00 0.0000000000000000e+00 0.0000000000000000e+00  1.2189760644465268e+00 -1.7283021884445719e-03 0.0000000000000000e+00 -1.7283021884445719e-03 2.7508694975779076e-02 0.0000000000000000e+00 0.0000000000000000e+00 0.0000000000000000e+00 0.0000000000000000e+00  1.2188605823693119e+00 -3.1010299926520070e-03 0.0000000000000000e+00 -3.1010299926520070e-03 2.7480574646792835e-02 0.0000000000000000e+00 0.0000000000000000e+00 0.0000000000000000e+00 0.0000000000000000e+00  1.2186593167061504e+00 -4.5338022882007098e-03 0.0000000000000000e+00 -4.5338022882007098e-03 2.7486569716068956e-02 0.0000000000000000e+00 0.0000000000000000e+00 0.0000000000000000e+00 0.0000000000000000e+00  1.2183793511968233e+00 -5.9276902798312131e-03 0.0000000000000000e+00 -5.9276902798312140e-03 2.7436662296638738e-02 0.0000000000000000e+00 0.0000000000000000e+00 0.0000000000000000e+00 0.0000000000000000e+00  1.2180774475942382e+00 -7.3530809241135033e-03 0.0000000000000000e+00 -7.3530809241135033e-03 2.7443592759003245e-02 0.0000000000000000e+00 0.0000000000000000e+00 0.0000000000000000e+00 0.0000000000000000e+00  1.2175568017517988e+00 -8.7868439038912022e-03 0.0000000000000000e+00 -8.7868439038912022e-03 2.7253140915903196e-02 0.0000000000000000e+00 0.0000000000000000e+00 0.0000000000000000e+00 0.0000000000000000e+00  1.2171667744056549e+00 -1.0131012929892397e-02 0.0000000000000000e+00 -1.0131012929892397e-02 2.7331014809040054e-02 0.0000000000000000e+00 0.0000000000000000e+00 0.0000000000000000e+00 0.0000000000000000e+00  1.2165028077160593e+00 -1.1552970672914447e-02 0.0000000000000000e+00 -1.1552970672914447e-02 2.7270914956340229e-02 0.0000000000000000e+00 0.0000000000000000e+00 0.0000000000000000e+00 0.0000000000000000e+00  1.2158880807555461e+00 -1.2927548306146100e-02 0.0000000000000000e+00 -1.2927548306146106e-02 2.7184030430306958e-02 0.0000000000000000e+00 0.0000000000000000e+00 0.0000000000000000e+00 0.0000000000000000e+00  1.2151731454854644e+00 -1.4362001145314971e-02 0.0000000000000000e+00 -1.4362001145314968e-02 2.7147586550184691e-02 0.0000000000000000e+00 0.0000000000000000e+00 0.0000000000000000e+00 0.0000000000000000e+00  1.2143168126427033e+00 -1.5683810222140208e-02 0.0000000000000000e+00 -1.5683810222140208e-02 2.6955105779135981e-02 0.0000000000000000e+00 0.0000000000000000e+00 0.0000000000000000e+00 0.0000000000000000e+00  1.2136170231510901e+00 -1.6988111163321787e-02 0.0000000000000000e+00 -1.6988111163321787e-02 2.7021732113091525e-02 0.0000000000000000e+00 0.0000000000000000e+00 0.0000000000000000e+00 0.0000000000000000e+00  1.2125350222441404e+00 -1.8478253557709115e-02 0.0000000000000000e+00 -1.8478253557709115e-02 2.6762599089075134e-02 0.0000000000000000e+00 0.0000000000000000e+00 0.0000000000000000e+00 0.0000000000000000e+00  1.2116756348109650e+00 -1.9761682855265850e-02 0.0000000000000000e+00 -1.9761682855265850e-02 2.6783554511855642e-02 0.0000000000000000e+00 0.0000000000000000e+00 0.0000000000000000e+00 0.0000000000000000e+00  1.2104685687186338e+00 -2.1163123734788243e-02 0.0000000000000000e+00 -2.1163123734788247e-02 2.6644452869839529e-02 0.0000000000000000e+00 0.0000000000000000e+00 0.0000000000000000e+00 0.0000000000000000e+00  1.2093658737719060e+00 -2.2479242483083629e-02 0.0000000000000000e+00 -2.2479242483083629e-02 2.6522789330295646e-02 0.0000000000000000e+00 0.0000000000000000e+00 0.0000000000000000e+00 0.0000000000000000e+00  1.2081547090576963e+00 -2.3825384636622770e-02 0.0000000000000000e+00 -2.3825384636622766e-02 2.6436019370864667e-02 0.0000000000000000e+00 0.0000000000000000e+00 0.0000000000000000e+00 0.0000000000000000e+00  1.2068610185151167e+00 -2.5124929976167845e-02 0.0000000000000000e+00 -2.5124929976167845e-02 2.6309062521443508e-02 0.0000000000000000e+00 0.0000000000000000e+00 0.0000000000000000e+00 0.0000000000000000e+00  1.2055800944786457e+00 -2.6416180307441334e-02 0.0000000000000000e+00 -2.6416180307441334e-02 2.6208811403288353e-02 0.0000000000000000e+00 0.0000000000000000e+00 0.0000000000000000e+00 0.0000000000000000e+00  1.2040849138952270e+00 -2.7786997824012782e-02 0.0000000000000000e+00 -2.7786997824012786e-02 2.6061832002492128e-02 0.0000000000000000e+00 0.0000000000000000e+00 0.0000000000000000e+00 0.0000000000000000e+00  1.2026719007191853e+00 -2.9007593195645748e-02 0.0000000000000000e+00 -2.9007593195645748e-02 2.5944638430084495e-02 0.0000000000000000e+00 0.0000000000000000e+00 0.0000000000000000e+00 0.0000000000000000e+00  1.2010797264803024e+00 -3.0329183019908088e-02 0.0000000000000000e+00 -3.0329183019908088e-02 2.5844873136628949e-02 0.0000000000000000e+00 0.0000000000000000e+00 0.0000000000000000e+00 0.0000000000000000e+00  1.1994880004626964e+00 -3.1614058992884539e-02 0.0000000000000000e+00 -3.1614058992884539e-02 2.5683661505143066e-02 0.0000000000000000e+00 0.0000000000000000e+00 0.0000000000000000e+00 0.0000000000000000e+00  1.1978115511367469e+00 -3.2847353860548482e-02 0.0000000000000000e+00 -3.2847353860548482e-02 2.5556113888074175e-02 0.0000000000000000e+00 0.0000000000000000e+00 0.0000000000000000e+00 0.0000000000000000e+00  1.1959456716166728e+00 -3.4156157505372604e-02 0.0000000000000000e+00 -3.4156157505372604e-02 2.5296446870087169e-02 0.0000000000000000e+00 0.0000000000000000e+00 0.0000000000000000e+00 0.0000000000000000e+00  1.1942998389763801e+00 -3.5308423103989565e-02 0.0000000000000000e+00 -3.5308423103989565e-02 2.5202274690539248e-02 0.0000000000000000e+00 0.0000000000000000e+00 0.0000000000000000e+00 0.0000000000000000e+00  1.1922870863242963e+00 -3.6566630527236445e-02 0.0000000000000000e+00 -3.6566630527236445e-02 2.5081101357077164e-02 0.0000000000000000e+00 0.0000000000000000e+00 0.0000000000000000e+00 0.0000000000000000e+00  1.1904573596087933e+00 -3.7775503230241356e-02 0.0000000000000000e+00 -3.7775503230241356e-02 2.4934843184477130e-02 0.0000000000000000e+00 0.0000000000000000e+00 0.0000000000000000e+00 0.0000000000000000e+00  1.1884723344434014e+00 -3.8982272389387090e-02 0.0000000000000000e+00 -3.8982272389387097e-02 2.4827884633019087e-02 0.0000000000000000e+00 0.0000000000000000e+00 0.0000000000000000e+00 0.0000000000000000e+00  1.1864253625519059e+00 -4.0123311069862944e-02 0.0000000000000000e+00 -4.0123311069862937e-02 2.4579333840700584e-02 0.0000000000000000e+00 0.0000000000000000e+00 0.0000000000000000e+00 0.0000000000000000e+00  1.1844277262629810e+00 -4.1321958285410354e-02 0.0000000000000000e+00 -4.1321958285410354e-02 2.4544317908099370e-02 0.0000000000000000e+00 0.0000000000000000e+00 0.0000000000000000e+00 0.0000000000000000e+00  1.1821509850851946e+00 -4.2531590447078244e-02 0.0000000000000000e+00 -4.2531590447078244e-02 2.4358533462850575e-02 0.0000000000000000e+00 0.0000000000000000e+00 0.0000000000000000e+00 0.0000000000000000e+00  1.1799962939508397e+00 -4.3636524213008121e-02 0.0000000000000000e+00 -4.3636524213008121e-02 2.4090946100850909e-02 0.0000000000000000e+00 0.0000000000000000e+00 0.0000000000000000e+00 0.0000000000000000e+00  1.1776779251451992e+00 -4.4860556857103030e-02 0.0000000000000000e+00 -4.4860556857103051e-02 2.4013731732081371e-02 0.0000000000000000e+00 0.0000000000000000e+00 0.0000000000000000e+00 0.0000000000000000e+00  1.1753143564341166e+00 -4.5922911035591756e-02 0.0000000000000000e+00 -4.5922911035591756e-02 2.3712856309333365e-02 0.0000000000000000e+00 0.0000000000000000e+00 0.0000000000000000e+00 0.0000000000000000e+00  1.1730225174445990e+00 -4.7028718588421684e-02 0.0000000000000000e+00 -4.7028718588421684e-02 2.3646492135263503e-02 0.0000000000000000e+00 0.0000000000000000e+00 0.0000000000000000e+00 0.0000000000000000e+00  1.1703610289940545e+00 -4.8132015897559714e-02 0.0000000000000000e+00 -4.8132015897559714e-02 2.3265894146287280e-02 0.0000000000000000e+00 0.0000000000000000e+00 0.0000000000000000e+00 0.0000000000000000e+00  1.1680200180083447e+00 -4.9164960902302782e-02 0.0000000000000000e+00 -4.9164960902302782e-02 2.3149871989763388e-02 0.0000000000000000e+00 0.0000000000000000e+00 0.0000000000000000e+00 0.0000000000000000e+00  1.1652260689002123e+00 -5.0281165333661233e-02 0.0000000000000000e+00 -5.0281165333661233e-02 2.2871674481267128e-02 0.0000000000000000e+00 0.0000000000000000e+00 0.0000000000000000e+00 0.0000000000000000e+00  1.1626576826708688e+00 -5.1258507449649757e-02 0.0000000000000000e+00 -5.1258507449649764e-02 2.2553493787799441e-02 0.0000000000000000e+00 0.0000000000000000e+00 0.0000000000000000e+00 0.0000000000000000e+00  1.1599366594296263e+00 -5.2297857518762411e-02 0.0000000000000000e+00 -5.2297857518762342e-02 2.2418157866658961e-02 0.0000000000000000e+00 0.0000000000000000e+00 0.0000000000000000e+00 0.0000000000000000e+00  1.1570965140702469e+00 -5.3337536247519621e-02 0.0000000000000000e+00 -5.3337536247519628e-02 2.2105135712027147e-02 0.0000000000000000e+00 0.0000000000000000e+00 0.0000000000000000e+00 0.0000000000000000e+00  1.1544166403451062e+00 -5.4298760045303360e-02 0.0000000000000000e+00 -5.4298760045303367e-02 2.1964082976202354e-02 0.0000000000000000e+00 0.0000000000000000e+00 0.0000000000000000e+00 0.0000000000000000e+00  1.1513581141404630e+00 -5.5330650824661091e-02 0.0000000000000000e+00 -5.5330650824661091e-02 2.1634128020007887e-02 0.0000000000000000e+00 0.0000000000000000e+00 0.0000000000000000e+00 0.0000000000000000e+00  1.1486327540058161e+00 -5.6236562339625908e-02 0.0000000000000000e+00 -5.6236562339625908e-02 2.1454123502999189e-02 0.0000000000000000e+00 0.0000000000000000e+00 0.0000000000000000e+00 0.0000000000000000e+00  1.1454792117472752e+00 -5.7227963756026325e-02 0.0000000000000000e+00 -5.7227963756026325e-02 2.1138683190134840e-02 0.0000000000000000e+00 0.0000000000000000e+00 0.0000000000000000e+00 0.0000000000000000e+00  1.1425644657526457e+00 -5.8141655361672241e-02 0.0000000000000000e+00 -5.8141655361672241e-02 2.0819841957950100e-02 0.0000000000000000e+00 0.0000000000000000e+00 0.0000000000000000e+00 0.0000000000000000e+00  1.1393736195138757e+00 -5.9036349111216295e-02 0.0000000000000000e+00 -5.9036349111216295e-02 2.0476960439890068e-02 0.0000000000000000e+00 0.0000000000000000e+00 0.0000000000000000e+00 0.0000000000000000e+00  1.1361841691172661e+00 -5.9899444643554220e-02 0.0000000000000000e+00 -5.9899444643554220e-02 2.0118312287891821e-02 0.0000000000000000e+00 0.0000000000000000e+00 0.0000000000000000e+00 0.0000000000000000e+00  1.1332107344963145e+00 -6.0733497957164054e-02 0.0000000000000000e+00 -6.0733497957164054e-02 1.9886450004930511e-02 0.0000000000000000e+00 0.0000000000000000e+00 0.0000000000000000e+00 0.0000000000000000e+00  1.1297691058147661e+00 -6.1610316091316689e-02 0.0000000000000000e+00 -6.1610316091316689e-02 1.9505963960453950e-02 0.0000000000000000e+00 0.0000000000000000e+00 0.0000000000000000e+00 0.0000000000000000e+00  1.1266849859123191e+00 -6.2341424485060373e-02 0.0000000000000000e+00 -6.2341424485060373e-02 1.9210749460474109e-02 0.0000000000000000e+00 0.0000000000000000e+00 0.0000000000000000e+00 0.0000000000000000e+00  1.1232144230211836e+00 -6.3147646943242777e-02 0.0000000000000000e+00 -6.3147646943242777e-02 1.8886488020962943e-02 0.0000000000000000e+00 0.0000000000000000e+00 0.0000000000000000e+00 0.0000000000000000e+00  1.1199499904332715e+00 -6.3898225841971898e-02 0.0000000000000000e+00 -6.3898225841971898e-02 1.8557609137766273e-02 0.0000000000000000e+00 0.0000000000000000e+00 0.0000000000000000e+00 0.0000000000000000e+00  1.1165785810732516e+00 -6.4630740631484135e-02 0.0000000000000000e+00 -6.4630740631484135e-02 1.8224217002076017e-02 0.0000000000000000e+00 0.0000000000000000e+00 0.0000000000000000e+00 0.0000000000000000e+00  1.1130565683035232e+00 -6.5351416157921727e-02 0.0000000000000000e+00 -6.5351416157921727e-02 1.7874797507337073e-02 0.0000000000000000e+00 0.0000000000000000e+00 0.0000000000000000e+00 0.0000000000000000e+00  1.1098660970512269e+00 -6.6056555475194609e-02 0.0000000000000000e+00 -6.6056555475194609e-02 1.7628491361067034e-02 0.0000000000000000e+00 0.0000000000000000e+00 0.0000000000000000e+00 0.0000000000000000e+00  1.1060804343490753e+00 -6.6812322351338591e-02 0.0000000000000000e+00 -6.6812322351338591e-02 1.7229912689653831e-02 0.0000000000000000e+00 0.0000000000000000e+00 0.0000000000000000e+00 0.0000000000000000e+00  1.1026626833293249e+00 -6.7429520673227758e-02 0.0000000000000000e+00 -6.7429520673227758e-02 1.6823266954490358e-02 0.0000000000000000e+00 0.0000000000000000e+00 0.0000000000000000e+00 0.0000000000000000e+00  1.0989534896987336e+00 -6.8098660696926050e-02 0.0000000000000000e+00 -6.8098660696926050e-02 1.6463928066697123e-02 0.0000000000000000e+00 0.0000000000000000e+00 0.0000000000000000e+00 0.0000000000000000e+00  1.0952664938982013e+00 -6.8710226810330496e-02 0.0000000000000000e+00 -6.8710226810330496e-02 1.6005439677125408e-02 0.0000000000000000e+00 0.0000000000000000e+00 0.0000000000000000e+00 0.0000000000000000e+00  1.0916961149259863e+00 -6.9285445872832210e-02 0.0000000000000000e+00 -6.9285445872832210e-02 1.5645566937497142e-02 0.0000000000000000e+00 0.0000000000000000e+00 0.0000000000000000e+00 0.0000000000000000e+00  1.0878161754473159e+00 -6.9835434157965851e-02 0.0000000000000000e+00 -6.9835434157965851e-02 1.5224636566873702e-02 0.0000000000000000e+00 0.0000000000000000e+00 0.0000000000000000e+00 0.0000000000000000e+00  1.0843162024290260e+00 -7.0363041798552461e-02 0.0000000000000000e+00 -7.0363041798552461e-02 1.4821723212221307e-02 0.0000000000000000e+00 0.0000000000000000e+00 0.0000000000000000e+00 0.0000000000000000e+00  1.0802961052813929e+00 -7.0878529579032526e-02 0.0000000000000000e+00 -7.0878529579032526e-02 1.4382543144898608e-02 0.0000000000000000e+00 0.0000000000000000e+00 0.0000000000000000e+00 0.0000000000000000e+00  1.0766509874812307e+00 -7.1323293530405230e-02 0.0000000000000000e+00 -7.1323293530405230e-02 1.3963543075426689e-02 0.0000000000000000e+00 0.0000000000000000e+00 0.0000000000000000e+00 0.0000000000000000e+00  1.0727741165077240e+00 -7.1807434254461913e-02 0.0000000000000000e+00 -7.1807434254461913e-02 1.3540365397634037e-02 0.0000000000000000e+00 0.0000000000000000e+00 0.0000000000000000e+00 0.0000000000000000e+00  1.0688596049457233e+00 -7.2225887751101975e-02 0.0000000000000000e+00 -7.2225887751101975e-02 1.3110552397154711e-02 0.0000000000000000e+00 0.0000000000000000e+00 0.0000000000000000e+00 0.0000000000000000e+00  1.0651959643501243e+00 -7.2623622050750861e-02 0.0000000000000000e+00 -7.2623622050750861e-02 1.2733458441633975e-02 0.0000000000000000e+00 0.0000000000000000e+00 0.0000000000000000e+00 0.0000000000000000e+00  1.0610990765342145e+00 -7.3063013859965983e-02 0.0000000000000000e+00 -7.3063013859965983e-02 1.2288818108072832e-02 0.0000000000000000e+00 0.0000000000000000e+00 0.0000000000000000e+00 0.0000000000000000e+00  1.0573892221618577e+00 -7.3421600962402481e-02 0.0000000000000000e+00 -7.3421600962402481e-02 1.1860674791650158e-02 0.0000000000000000e+00 0.0000000000000000e+00 0.0000000000000000e+00 0.0000000000000000e+00  1.0532575076451478e+00 -7.3799665380249513e-02 0.0000000000000000e+00 -7.3799665380249513e-02 1.1368035302868505e-02 0.0000000000000000e+00 0.0000000000000000e+00 0.0000000000000000e+00 0.0000000000000000e+00  1.0493523522616199e+00 -7.4152271153432536e-02 0.0000000000000000e+00 -7.4152271153432536e-02 1.0904303450559996e-02 0.0000000000000000e+00 0.0000000000000000e+00 0.0000000000000000e+00 0.0000000000000000e+00  1.0453686797952551e+00 -7.4413031806477417e-02 0.0000000000000000e+00 -7.4413031806477417e-02 1.0400448573536879e-02 0.0000000000000000e+00 0.0000000000000000e+00 0.0000000000000000e+00 0.0000000000000000e+00  1.0412268117620771e+00 -7.4658345388296105e-02 0.0000000000000000e+00 -7.4658345388296105e-02 9.9032732829279647e-03 0.0000000000000000e+00 0.0000000000000000e+00 0.0000000000000000e+00 0.0000000000000000e+00  1.0374814297170722e+00 -7.4906541731040346e-02 0.0000000000000000e+00 -7.4906541731040346e-02 9.5056242696028286e-03 0.0000000000000000e+00 0.0000000000000000e+00 0.0000000000000000e+00 0.0000000000000000e+00  1.0331549775265794e+00 -7.5180841709818147e-02 0.0000000000000000e+00 -7.5180841709818147e-02 8.9776329235304181e-03 0.0000000000000000e+00 0.0000000000000000e+00 0.0000000000000000e+00 0.0000000000000000e+00  1.0293071720613907e+00 -7.5406835128780811e-02 0.0000000000000000e+00 -7.5406835128780797e-02 8.5210896587212624e-03 0.0000000000000000e+00 0.0000000000000000e+00 0.0000000000000000e+00 0.0000000000000000e+00  1.0250594459866185e+00 -7.5531558361022738e-02 0.0000000000000000e+00 -7.5531558361022752e-02 8.0044084361171001e-03 0.0000000000000000e+00 0.0000000000000000e+00 0.0000000000000000e+00 0.0000000000000000e+00  1.0209947290966952e+00 -7.5703209200691193e-02 0.0000000000000000e+00 -7.5703209200691193e-02 7.5123916897678793e-03 0.0000000000000000e+00 0.0000000000000000e+00 0.0000000000000000e+00 0.0000000000000000e+00  1.0169762748713878e+00 -7.5848231155778975e-02 0.0000000000000000e+00 -7.5848231155778975e-02 6.9714483918140559e-03 0.0000000000000000e+00 0.0000000000000000e+00 0.0000000000000000e+00 0.0000000000000000e+00  1.0126139701551817e+00 -7.6003485173980395e-02 0.0000000000000000e+00 -7.6003485173980395e-02 6.3966053610646318e-03 0.0000000000000000e+00 0.0000000000000000e+00 0.0000000000000000e+00 0.0000000000000000e+00  1.0087729624967576e+00 -7.6053269476679536e-02 0.0000000000000000e+00 -7.6053269476679536e-02 5.9079203084133180e-03 0.0000000000000000e+00 0.0000000000000000e+00 0.0000000000000000e+00 0.0000000000000000e+00  1.0044285158568009e+00 -7.6146756245512343e-02 0.0000000000000000e+00 -7.6146756245512343e-02 5.3364389337735114e-03 0.0000000000000000e+00 0.0000000000000000e+00 0.0000000000000000e+00 0.0000000000000000e+00  1.0004655312415536e+00 -7.6113097253934781e-02 0.0000000000000000e+00 -7.6113097253934781e-02 4.8153479437858743e-03 0.0000000000000000e+00 0.0000000000000000e+00 0.0000000000000000e+00 0.0000000000000000e+00  9.9630489736737260e-01 -7.6046559575502062e-02 0.0000000000000000e+00 -7.6046559575502062e-02 4.2607531647976702e-03 0.0000000000000000e+00 0.0000000000000000e+00 0.0000000000000000e+00 0.0000000000000000e+00  9.9199415869090324e-01 -7.6053874720279468e-02 0.0000000000000000e+00 -7.6053874720279468e-02 3.6682145187471012e-03 0.0000000000000000e+00 0.0000000000000000e+00 0.0000000000000000e+00 0.0000000000000000e+00  9.8811020199832278e-01 -7.5938107282700021e-02 0.0000000000000000e+00 -7.5938107282700021e-02 3.1573463498592003e-03 0.0000000000000000e+00 0.0000000000000000e+00 0.0000000000000000e+00 0.0000000000000000e+00  9.8373314573903048e-01 -7.5819168792226901e-02 0.0000000000000000e+00 -7.5819168792226901e-02 2.4777558481214284e-03 0.0000000000000000e+00 0.0000000000000000e+00 0.0000000000000000e+00 0.0000000000000000e+00  9.7978301139428225e-01 -7.5753136240954033e-02 0.0000000000000000e+00 -7.5753136240954033e-02 1.9791629736513111e-03 0.0000000000000000e+00 0.0000000000000000e+00 0.0000000000000000e+00 0.0000000000000000e+00  9.7547567783214351e-01 -7.5563703310226230e-02 0.0000000000000000e+00 -7.5563703310226230e-02 1.3953702259284389e-03 0.0000000000000000e+0