<?xml version="1.0"?>
<VTKFile type="UnstructuredGrid"  version="0.1"  >
<UnstructuredGrid>
<Piece  NumberOfPoints="4272" NumberOfCells="6760">
<Points>
<DataArray  type="Float64"  NumberOfComponents="3"  format="ascii">0 0.01 0  10 0.01 0  0 1.02244766404895 0  10 1.02244766404895 0  0.007129524987038337 0.009997491741717768 0  0.01258064459049757 0.00999219056738478 0  0.01872173241756402 0.009982708334120727 0  0.02429919625640796 0.009970876572043954 0  0.03017238705920286 0.009955108531615313 0  0.03612352734296466 0.0099356743715591 0  0.04164979236492252 0.009914517792428084 0  0.04780928449023854 0.009887415768096998 0  0.05327287671237849 0.009860276931383746 0  0.0593436395885565 0.009826715421083503 0  0.06505608699933001 0.009791870631895848 0  0.07077243060783153 0.009753845329312128 0  0.07684085351634186 0.009710036052663748 0  0.08230528612367993 0.009667566921662384 0  0.08846525752759338 0.009616276826848907 0  0.09398926586603956 0.0095672187064786 0  0.09994377871281757 0.009511110804477986 0  0.10581288515308 0.009452550633355501 0  0.1113930001121819 0.009393893683773193 0  0.1175326299024069 0.009326020378011352 0  0.122983161250664 0.009262856809916281 0  0.1290978349347763 0.009188765415777931 0  0.1347300222736412 0.00911751981665075 0  0.1405327472005438 0.009041131768776852 0  0.1465421455697866 0.008958856277281909 0  0.1520341809431761 0.008880870879718691 0  0.1581991754706344 0.00879018143976357 0  0.1636834803794234 0.008706732874359017 0  0.1697073563005918 0.008612096527554045 0  0.1754901396361989 0.008518345936558386 0  0.1811391035120075 0.008424050210098115 0  0.1872444279222087 0.00831915423323064 0  0.1926961446341008 0.008222899998379215 0  0.198841090009393 0.008111516418624823 0  0.2044064770158165 0.008008028244452866 0  0.2102948627703611 0.007895869216798803 0  0.2162299794791283 0.007780085801116003 0  0.2217647046821167 0.007669675498109103 0  0.2279204403470532 0.007544154739747676 0  0.2333791472114919 0.007430485124751003 0  0.2394590817234977 0.0073013084386626 0  0.245152498789355 0.007177928079207972 0  0.2508861115607116 0.007051356111670669 0  0.2569419868439766 0.006915186417023598 0  0.2624099649457279 0.006790084113692359 0  0.2685711825796066 0.006646722567663751 0  0.274083748205357 0.006516341894728842 0  0.2800541704182985 0.00637292855786236 0  0.2859022845836161 0.006230279166502627 0  0.291495955429921 0.006091868246150131 0  0.2976275706217687 0.005937986548763313 0  0.3030757324287757 0.005799406374294222 0  0.3091980118239236 0.005641654227187252 0  0.3148109405089491 0.005495191514879527 0  0.3206341933715942 0.005341435282378838 0  0.3266248575896781 0.005181393525330103 0  0.3321252080346692 0.005032833254881577 0  0.3382880718234609 0.004864596209960478 0  0.3437628463580178 0.004713611578807419 0  0.3498021006600692 0.004545443593512952 0  0.3555594631656461 0.004383601001460968 0  0.3612291099056053 0.004222822711549606 0  0.3673210805066339 0.004048576418709386 0  0.3727746135437823 0.003891330909934085 0  0.3789246700786391 0.003712634483246944 0  0.3844721023230384 0.00355025746928806 0  0.3903845048135511 0.003376011435332509 0  0.3962935688476314 0.003200699755406988 0  0.4018430601204535 0.00303505085978487 0  0.4079921977692303 0.002850427660455144 0  0.4134449905916002 0.002685819499171436 0  0.4195385366679084 0.002500937932218923 0  0.425204482428441 0.002328206591247292 0  0.4309651825948974 0.00215183074136113 0  0.4370014133195289 0.001966263547608745 0  0.4424769325836848 0.00179732019881714 0  0.4486395183564056 0.001606544730410899 0  0.4541373275735043 0.001435838569361521 0  0.4601308451156257 0.001249254088784412 0  0.4659488863550298 0.001067707976620331 0  0.471564807260988 0.0008921302908496037 0  0.4776843759254726 0.0007004920228137959 0  0.4831317484445766 0.0005296836585198918 0  0.4892643513384632 0.0003372062279158936 0  0.4948528283485032 0.000161696161435303 0  0.5007056813361916 -2.216943068070812e-05 0  0.5066699093509902 -0.000209526046556915 0  0.5121845298566023 -0.0003826949545447442 0  0.5183439831944545 -0.0005759742926309219 0  0.5238088617282698 -0.0007472800272428554 0  0.5298681543527348 -0.0009369594486414562 0  0.5355929349139432 -0.001115856450691032 0  0.5412927239341832 -0.001293613669039852 0  0.5473668732672543 -0.001482588207084091 0  0.5528259073001393 -0.001651967505962102 0  0.5589819336317072 -0.001842386787779294 0  0.5645100189486582 -0.002012797049529044 0  0.5704524332663232 -0.002195301346534757 0  0.5763298911552834 -0.002375058665203144 0  0.5819006708717119 -0.002544689651648297 0  0.5880413281562127 -0.002730768313747055 0  0.5934904284812221 -0.002895042191696308 0  0.5995995320960693 -0.003078202338538874 0  0.605236779888003 -0.003246210954182579 0  0.6110299855290301 -0.003417806240976177 0  0.6170432999212266 -0.00359472323302265 0  0.6225307972792151 -0.00375505261922207 0  0.6286944373476531 -0.003933803567825084 0  0.6341794289295242 -0.004091634709336539 0  0.6401977648984302 -0.004263413669385436 0  0.6459846030577213 -0.004427148756161272 0  0.6516277670629291 -0.004585409549508515 0  0.6577342305863492 -0.004755038487876419 0  0.6631843111407589 -0.004904958327357115 0  0.6693271588517591 -0.005072208653571043 0  0.6748942591145469 -0.005222152905474348 0  0.6807781354428797 -0.005378892074409919 0  0.6867158102497221 -0.005535201343768038 0  0.6922478556369909 -0.005679100421160843 0  0.6984036264198542 -0.005837205328254034 0  0.7038624132928571 -0.005975584427524931 0  0.7099402809449575 -0.006127588021236129 0  0.7156361945945205 -0.006268012368771779 0  0.7213667017809595 -0.006407263887957157 0  0.7274241898103784 -0.006552202568912044 0  0.7328913375361901 -0.006680980644346233 0  0.7390522654079078 -0.006823736587757829 0  0.7445663161830813 -0.006949337256267011 0  0.7505345306161221 -0.007082931996795786 0  0.7563856967966242 -0.007211490056377221 0  0.7619775509571868 -0.007332073958440476 0  0.7681106054434813 -0.007461725199742056 0  0.7735594228940573 -0.007574589702563127 0  0.7796809699364847 -0.007698739982391196 0  0.7852974086111042 -0.007810142587226769 0  0.7911178568436495 -0.007923025648348906 0  0.797112403703894 -0.008036515862006795 0  0.8026119630288198 -0.008138129173272899 0  0.8087760180262171 -0.008249131188213875 0  0.814253500572072 -0.008345174877796967 0  0.8202905515677629 -0.008448166667805387 0  0.8260544286221699 -0.008543663134562481 0  0.831720415905675 -0.008634807324656511 0  0.8378167080097026 -0.008729817306667463 0  0.8432709709919499 -0.008812108559864256 0  0.8494209576248264 -0.008901791974276371 0  0.8549745826348545 -0.008979924427376591 0  0.8608814329347291 -0.009060026011188804 0  0.8667998142885592 -0.009137155111096256 0  0.8723460990452367 -0.009206568509458774 0  0.8784989383774584 -0.009280301817794542 0  0.8839552890388401 -0.009342788637451834 0  0.8900456692707091 -0.009409293585850673 0  0.8957233874467343 -0.009468190513990782 0  0.9014754209053449 -0.009524786393944277 0  0.9075213579987256 -0.009580921173179099 0  0.9129954731058688 -0.009628765913494807 0  0.9191593188847452 -0.009679229788646495 0  0.9246655330424429 -0.009721240864333262 0  0.9306503084472221 -0.009763603884533442 0  0.9364847200361547 -0.009801580348484516 0  0.9420914259676206 -0.009834972127394636 0  0.948219177636862 -0.009867976960504428 0  0.9536688877131657 -0.009894257783109666 0  0.9597979104438458 -0.009920349306153329 0  0.9654020314719589 -0.009940987600901847 0  0.9712398170272581 -0.009959209624459757 0  0.9772219132298864 -0.009974407121723252 0  0.9827297975109929 -0.009985285083248089 0  0.9888934840407251 -0.009993913310034224 0  0.9943667421923366 -0.009998434045983932 0  1.000414962337846 -0.009999991502249178 0  1.00616395254491 -0.009998125110441144 0  1.011844857354635 -0.009993077234903055 0  1.017933801412069 -0.009984132829796667 0  1.023390946643176 -0.00997301205183276 0  1.029544679732296 -0.009956955598792184 0  1.035089558108845 -0.009939300412459717 0  1.041010936359372 -0.009917116481575694 0  1.04691554237944 -0.00989157814857561 0  1.052471258615448 -0.009864440751261633 0  1.05862104751389 -0.009830897850136421 0  1.064075481579663 -0.009798076706746352 0  1.070173358231585 -0.009757978136698224 0  1.075837941143087 -0.00971752009646258 0  1.081604377355612 -0.009673173917302162 0  1.087640686528322 -0.009623351755525641 0  1.093119387704205 -0.009575135453199036 0  1.099284093826516 -0.009517491101966447 0  1.104783734376909 -0.009463052176492596 0  1.110779897618174 -0.009400480030121557 0  1.116599992234411 -0.00933655469875222 0  1.122217899723542 -0.009271889359757672 0  1.128339818747432 -0.009198135031144493 0  1.133789446190431 -0.00912961705214143 0  1.139923317158062 -0.009049295973540348 0  1.145515844317945 -0.008973134373133167 0  1.151367773813766 -0.008890475161473248 0  1.157336906671575 -0.008803064948780913 0  1.16285160438384 -0.008719557366803981 0  1.16901331600552 -0.008623157866544266 0  1.174481522907442 -0.00853490108265173 0  1.180539122189597 -0.008434191931863186 0  1.186271617394136 -0.008336073959344166 0  1.191966996821913 -0.008235914041393521 0  1.198046448076202 -0.008126091334838595 0  1.203505695906331 -0.008024945109277802 0  1.209661806077474 -0.007908057515838151 0  1.21519584913737 -0.007800455577732041 0  1.221132109188887 -0.00768241304184519 0  1.227019087412133 -0.007562711583992629 0  1.232585135446325 -0.007447155722966398 0  1.238729389023077 -0.007316953404904543 0  1.244180486899644 -0.007199156086382225 0  1.250286093435722 -0.007064709646262071 0  1.255932842016573 -0.006938052500145445 0  1.261716857103797 -0.006806053534187844 0  1.26773845151126 -0.006666245775332091 0  1.273222687278595 -0.006536836953056475 0  1.279386853652711 -0.00638906998029936 0  1.284876650734994 -0.006255450389977176 0  1.290887326898431 -0.00610702037198264 0  1.296685536664392 -0.00596177282270944 0  1.30231949087952 -0.005818744638503708 0  1.308431215520824 -
[...]
<PointData  Tensors="Total Stress"> 
<DataArray  type="Float64"  Name="Total Stress"  NumberOfComponents="9" format="ascii">1.2214596554322090e+00 -5.0923755652773129e-05 0.0000000000000000e+00 -5.0923755652773082e-05 3.0100868898653394e-02 0.0000000000000000e+00 0.0000000000000000e+00 0.0000000000000000e+00 0.0000000000000000e+00  1.2214596554322090e+00 -5.0923755652773129e-05 0.0000000000000000e+00 -5.0923755652773082e-05 3.0100868898653394e-02 0.0000000000000000e+00 0.0000000000000000e+00 0.0000000000000000e+00 0.0000000000000000e+00  8.1201879135714572e-01 2.9052108066213864e-05 0.0000000000000000e+00 2.9052108066213864e-05 -4.1532038721440378e-03 0.0000000000000000e+00 0.0000000000000000e+00 0.0000000000000000e+00 0.0000000000000000e+00  8.1201879135714572e-01 2.9052108066213864e-05 0.0000000000000000e+00 2.9052108066213864e-05 -4.1532038721440378e-03 0.0000000000000000e+00 0.0000000000000000e+00 0.0000000000000000e+00 0.0000000000000000e+00  1.2214926606931509e+00 -1.7704889774556155e-03 0.0000000000000000e+00 -1.7704889774556155e-03 2.9984134116377140e-02 0.0000000000000000e+00 0.0000000000000000e+00 0.0000000000000000e+00 0.0000000000000000e+00  1.2213322535592426e+00 -3.1809167241803210e-03 0.0000000000000000e+00 -3.1809167241803210e-03 2.9961249275260317e-02 0.0000000000000000e+00 0.0000000000000000e+00 0.0000000000000000e+00 0.0000000000000000e+00  1.2211389196029589e+00 -4.6424547123111422e-03 0.0000000000000000e+00 -4.6424547123111422e-03 2.9968478869668993e-02 0.0000000000000000e+00 0.0000000000000000e+00 0.0000000000000000e+00 0.0000000000000000e+00  1.2208604112259793e+00 -6.0609569659402689e-03 0.0000000000000000e+00 -6.0609569659402689e-03 2.9913319580697394e-02 0.0000000000000000e+00 0.0000000000000000e+00 0.0000000000000000e+00 0.0000000000000000e+00  1.2205483591006767e+00 -7.5125059201805499e-03 0.0000000000000000e+00 -7.5125059201805499e-03 2.9920966268538976e-02 0.0000000000000000e+00 0.0000000000000000e+00 0.0000000000000000e+00 0.0000000000000000e+00  1.2200207261239839e+00 -8.9739588551273949e-03 0.0000000000000000e+00 -8.9739588551273949e-03 2.9729721337624523e-02 0.0000000000000000e+00 0.0000000000000000e+00 0.0000000000000000e+00 0.0000000000000000e+00  1.2196336644063064e+00 -1.0338293499347288e-02 0.0000000000000000e+00 -1.0338293499347291e-02 2.9800872924239656e-02 0.0000000000000000e+00 0.0000000000000000e+00 0.0000000000000000e+00 0.0000000000000000e+00  1.2189787764625217e+00 -1.1787469761216623e-02 0.0000000000000000e+00 -1.1787469761216623e-02 2.9735058487970707e-02 0.0000000000000000e+00 0.0000000000000000e+00 0.0000000000000000e+00 0.0000000000000000e+00  1.2183600080324404e+00 -1.3185660079837940e-02 0.0000000000000000e+00 -1.3185660079837942e-02 2.9649677809405649e-02 0.0000000000000000e+00 0.0000000000000000e+00 0.0000000000000000e+00 0.0000000000000000e+00  1.2176493559005768e+00 -1.4654505788144701e-02 0.0000000000000000e+00 -1.4654505788144704e-02 2.9607346766911073e-02 0.0000000000000000e+00 0.0000000000000000e+00 0.0000000000000000e+00 0.0000000000000000e+00  1.2167862638680691e+00 -1.6005455821805174e-02 0.0000000000000000e+00 -1.6005455821805171e-02 2.9416973307975519e-02 0.0000000000000000e+00 0.0000000000000000e+00 0.0000000000000000e+00 0.0000000000000000e+00  1.2160909157206674e+00 -1.7339906352316012e-02 0.0000000000000000e+00 -1.7339906352316012e-02 2.9478699153973362e-02 0.0000000000000000e+00 0.0000000000000000e+00 0.0000000000000000e+00 0.0000000000000000e+00  1.2149954354028489e+00 -1.8854565575458431e-02 0.0000000000000000e+00 -1.8854565575458431e-02 2.9235261762856166e-02 0.0000000000000000e+00 0.0000000000000000e+00 0.0000000000000000e+00 0.0000000000000000e+00  1.2141410248917777e+00 -2.0179522959653810e-02 0.0000000000000000e+00 -2.0179522959653810e-02 2.9247976334747662e-02 0.0000000000000000e+00 0.0000000000000000e+00 0.0000000000000000e+00 0.0000000000000000e+00  1.2129209732310324e+00 -2.1614012107118278e-02 0.0000000000000000e+00 -2.1614012107118278e-02 2.9113038943260415e-02 0.0000000000000000e+00 0.0000000000000000e+00 0.0000000000000000e+00 0.0000000000000000e+00  1.2118097971870216e+00 -2.2957286001862122e-02 0.0000000000000000e+00 -2.2957286001862122e-02 2.8997029542067471e-02 0.0000000000000000e+00 0.0000000000000000e+00 0.0000000000000000e+00 0.0000000000000000e+00  1.2105892437031009e+00 -2.4349046013557939e-02 0.0000000000000000e+00 -2.4349046013557939e-02 2.8898684201425367e-02 0.0000000000000000e+00 0.0000000000000000e+00 0.0000000000000000e+00 0.0000000000000000e+00  1.2092853217793142e+00 -2.5698048052586370e-02 0.0000000000000000e+00 -2.5698048052586370e-02 2.8762838083916484e-02 0.0000000000000000e+00 0.0000000000000000e+00 0.0000000000000000e+00 0.0000000000000000e+00  1.2079880622638679e+00 -2.7029687212688842e-02 0.0000000000000000e+00 -2.7029687212688842e-02 2.8643657165225357e-02 0.0000000000000000e+00 0.0000000000000000e+00 0.0000000000000000e+00 0.0000000000000000e+00  1.2064613041819419e+00 -2.8438514947751990e-02 0.0000000000000000e+00 -2.8438514947751990e-02 2.8468603731377749e-02 0.0000000000000000e+00 0.0000000000000000e+00 0.0000000000000000e+00 0.0000000000000000e+00  1.2050183405268007e+00 -2.9702589606018411e-02 0.0000000000000000e+00 -2.9702589606018411e-02 2.8327367069807111e-02 0.0000000000000000e+00 0.0000000000000000e+00 0.0000000000000000e+00 0.0000000000000000e+00  1.2033864248836337e+00 -3.1065428511540191e-02 0.0000000000000000e+00 -3.1065428511540195e-02 2.8190599710254075e-02 0.0000000000000000e+00 0.0000000000000000e+00 0.0000000000000000e+00 0.0000000000000000e+00  1.2017613023847451e+00 -3.2373910763276420e-02 0.0000000000000000e+00 -3.2373910763276392e-02 2.8003147841187643e-02 0.0000000000000000e+00 0.0000000000000000e+00 0.0000000000000000e+00 0.0000000000000000e+00  1.2000569733609225e+00 -3.3625687851747119e-02 0.0000000000000000e+00 -3.3625687851747132e-02 2.7848142304102014e-02 0.0000000000000000e+00 0.0000000000000000e+00 0.0000000000000000e+00 0.0000000000000000e+00  1.1981672705322177e+00 -3.4934289803533018e-02 0.0000000000000000e+00 -3.4934289803533018e-02 2.7558771582971046e-02 0.0000000000000000e+00 0.0000000000000000e+00 0.0000000000000000e+00 0.0000000000000000e+00  1.1965055782640586e+00 -3.6120313849350341e-02 0.0000000000000000e+00 -3.6120313849350341e-02 2.7456513480911080e-02 0.0000000000000000e+00 0.0000000000000000e+00 0.0000000000000000e+00 0.0000000000000000e+00  1.1944815174765202e+00 -3.7396734598037551e-02 0.0000000000000000e+00 -3.7396734598037551e-02 2.7330570926150651e-02 0.0000000000000000e+00 0.0000000000000000e+00 0.0000000000000000e+00 0.0000000000000000e+00  1.1926418970295636e+00 -3.8601227942716608e-02 0.0000000000000000e+00 -3.8601227942716608e-02 2.7170508247178194e-02 0.0000000000000000e+00 0.0000000000000000e+00 0.0000000000000000e+00 0.0000000000000000e+00  1.1906437878414327e+00 -3.9859762747869044e-02 0.0000000000000000e+00 -3.9859762747869044e-02 2.7065542261813659e-02 0.0000000000000000e+00 0.0000000000000000e+00 0.0000000000000000e+00 0.0000000000000000e+00  1.1885790129612608e+00 -4.1076619567380956e-02 0.0000000000000000e+00 -4.1076619567380943e-02 2.6798438320121902e-02 0.0000000000000000e+00 0.0000000000000000e+00 0.0000000000000000e+00 0.0000000000000000e+00  1.1865364631675892e+00 -4.2268125180619641e-02 0.0000000000000000e+00 -4.2268125180619634e-02 2.6731422075523911e-02 0.0000000000000000e+00 0.0000000000000000e+00 0.0000000000000000e+00 0.0000000000000000e+00  1.1841948540179144e+00 -4.3512554426996898e-02 0.0000000000000000e+00 -4.3512554426996898e-02 2.6480383972623110e-02 0.0000000000000000e+00 0.0000000000000000e+00 0.0000000000000000e+00 0.0000000000000000e+00  1.1820084561803597e+00 -4.4679495285561525e-02 0.0000000000000000e+00 -4.4679495285561539e-02 2.6196506014328842e-02 0.0000000000000000e+00 0.0000000000000000e+00 0.0000000000000000e+00 0.0000000000000000e+00  1.1796109747182066e+00 -4.5900932800388164e-02 0.0000000000000000e+00 -4.5900932800388171e-02 2.6033996946356198e-02 0.0000000000000000e+00 0.0000000000000000e+00 0.0000000000000000e+00 0.0000000000000000e+00  1.1772235415178172e+00 -4.7012881156697925e-02 0.0000000000000000e+00 -4.7012881156697925e-02 2.5713576699848983e-02 0.0000000000000000e+00 0.0000000000000000e+00 0.0000000000000000e+00 0.0000000000000000e+00  1.1748248854819019e+00 -4.8202749251850176e-02 0.0000000000000000e+00 -4.8202749251850169e-02 2.5562328943220504e-02 0.0000000000000000e+00 0.0000000000000000e+00 0.0000000000000000e+00 0.0000000000000000e+00  1.1721751449829250e+00 -4.9307328201153439e-02 0.0000000000000000e+00 -4.9307328201153439e-02 2.5221980190282694e-02 0.0000000000000000e+00 0.0000000000000000e+00 0.0000000000000000e+00 0.0000000000000000e+00  1.1697929913125493e+00 -5.0354882213342153e-02 0.0000000000000000e+00 -5.0354882213342153e-02 2.5067167207583094e-02 0.0000000000000000e+00 0.0000000000000000e+00 0.0000000000000000e+00 0.0000000000000000e+00  1.1669786326986771e+00 -5.1445337905163376e-02 0.0000000000000000e+00 -5.1445337905163376e-02 2.4756022549322434e-02 0.0000000000000000e+00 0.0000000000000000e+00 0.0000000000000000e+00 0.0000000000000000e+00  1.1643805106428458e+00 -5.2454485855913939e-02 0.0000000000000000e+00 -5.2454485855913939e-02 2.4411098078903064e-02 0.0000000000000000e+00 0.0000000000000000e+00 0.0000000000000000e+00 0.0000000000000000e+00  1.1615977822067209e+00 -5.3530371538852338e-02 0.0000000000000000e+00 -5.3530371538852338e-02 2.4235644641984567e-02 0.0000000000000000e+00 0.0000000000000000e+00 0.0000000000000000e+00 0.0000000000000000e+00  1.1587435430988791e+00 -5.4558385672769355e-02 0.0000000000000000e+00 -5.4558385672769355e-02 2.3868597136666569e-02 0.0000000000000000e+00 0.0000000000000000e+00 0.0000000000000000e+00 0.0000000000000000e+00  1.1560166752885206e+00 -5.5528309369646957e-02 0.0000000000000000e+00 -5.5528309369646957e-02 2.3688581560592340e-02 0.0000000000000000e+00 0.0000000000000000e+00 0.0000000000000000e+00 0.0000000000000000e+00  1.1529269055267128e+00 -5.6552643155324080e-02 0.0000000000000000e+00 -5.6552643155324080e-02 2.3304994029213336e-02 0.0000000000000000e+00 0.0000000000000000e+00 0.0000000000000000e+00 0.0000000000000000e+00  1.1501898859081094e+00 -5.7461519070724255e-02 0.0000000000000000e+00 -5.7461519070724255e-02 2.3110915348648477e-02 0.0000000000000000e+00 0.0000000000000000e+00 0.0000000000000000e+00 0.0000000000000000e+00  1.1470076006187659e+00 -5.8466792041435928e-02 0.0000000000000000e+00 -5.8466792041435928e-02 2.2776838885094623e-02 0.0000000000000000e+00 0.0000000000000000e+00 0.0000000000000000e+00 0.0000000000000000e+00  1.1440682252580918e+00 -5.9404272338889168e-02 0.0000000000000000e+00 -5.9404272338889168e-02 2.2427870789511840e-02 0.0000000000000000e+00 0.0000000000000000e+00 0.0000000000000000e+00 0.0000000000000000e+00  1.1408462930249286e+00 -6.0305951825017953e-02 0.0000000000000000e+00 -6.0305951825017953e-02 2.2073698747641906e-02 0.0000000000000000e+00 0.0000000000000000e+00 0.0000000000000000e+00 0.0000000000000000e+00  1.1376109510136527e+00 -6.1173703989726762e-02 0.0000000000000000e+00 -6.1173703989726762e-02 2.1677651994785666e-02 0.0000000000000000e+00 0.0000000000000000e+00 0.0000000000000000e+00 0.0000000000000000e+00  1.1346324184759817e+00 -6.2009305776487327e-02 0.0000000000000000e+00 -6.2009305776487327e-02 2.1459829958954641e-02 0.0000000000000000e+00 0.0000000000000000e+00 0.0000000000000000e+00 0.0000000000000000e+00  1.1311770218624193e+00 -6.2936022926969523e-02 0.0000000000000000e+00 -6.2936022926969523e-02 2.1073457334430501e-02 0.0000000000000000e+00 0.0000000000000000e+00 0.0000000000000000e+00 0.0000000000000000e+00  1.1280226031369038e+00 -6.3719673608336802e-02 0.0000000000000000e+00 -6.3719673608336802e-02 2.0736042397753437e-02 0.0000000000000000e+00 0.0000000000000000e+00 0.0000000000000000e+00 0.0000000000000000e+00  1.1245538685695491e+00 -6.4607319570903904e-02 0.0000000000000000e+00 -6.4607319570903904e-02 2.0372897184303951e-02 0.0000000000000000e+00 0.0000000000000000e+00 0.0000000000000000e+00 0.0000000000000000e+00  1.1213091312219567e+00 -6.5355322524193973e-02 0.0000000000000000e+00 -6.5355322524193973e-02 1.9979507687538964e-02 0.0000000000000000e+00 0.0000000000000000e+00 0.0000000000000000e+00 0.0000000000000000e+00  1.1179095348308881e+00 -6.6087673720498702e-02 0.0000000000000000e+00 -6.6087673720498702e-02 1.9627411354724171e-02 0.0000000000000000e+00 0.0000000000000000e+00 0.0000000000000000e+00 0.0000000000000000e+00  1.1141919826375752e+00 -6.6799800963177156e-02 0.0000000000000000e+00 -6.6799800963177156e-02 1.9252408197015659e-02 0.0000000000000000e+00 0.0000000000000000e+00 0.0000000000000000e+00 0.0000000000000000e+00  1.1109578149052133e+00 -6.7528785074776110e-02 0.0000000000000000e+00 -6.7528785074776110e-02 1.8925285713572070e-02 0.0000000000000000e+00 0.0000000000000000e+00 0.0000000000000000e+00 0.0000000000000000e+00  1.1071429752702246e+00 -6.8295009873776652e-02 0.0000000000000000e+00 -6.8295009873776652e-02 1.8472412634127373e-02 0.0000000000000000e+00 0.0000000000000000e+00 0.0000000000000000e+00 0.0000000000000000e+00  1.1037079390758497e+00 -6.8920499679668512e-02 0.0000000000000000e+00 -6.8920499679668512e-02 1.8046598239733265e-02 0.0000000000000000e+00 0.0000000000000000e+00 0.0000000000000000e+00 0.0000000000000000e+00  1.0999607532116993e+00 -6.9621832278464454e-02 0.0000000000000000e+00 -6.9621832278464454e-02 1.7660945838841997e-02 0.0000000000000000e+00 0.0000000000000000e+00 0.0000000000000000e+00 0.0000000000000000e+00  1.0962579132260990e+00 -7.0249062391909811e-02 0.0000000000000000e+00 -7.0249062391909811e-02 1.7159264046479564e-02 0.0000000000000000e+00 0.0000000000000000e+00 0.0000000000000000e+00 0.0000000000000000e+00  1.0926389424299887e+00 -7.0841128906785775e-02 0.0000000000000000e+00 -7.0841128906785775e-02 1.6768299277843207e-02 0.0000000000000000e+00 0.0000000000000000e+00 0.0000000000000000e+00 0.0000000000000000e+00  1.0887131990423009e+00 -7.1402418130299058e-02 0.0000000000000000e+00 -7.1402418130299058e-02 1.6303701607345629e-02 0.0000000000000000e+00 0.0000000000000000e+00 0.0000000000000000e+00 0.0000000000000000e+00  1.0851755156342660e+00 -7.1945195822406133e-02 0.0000000000000000e+00 -7.1945195822406133e-02 1.5863614102956398e-02 0.0000000000000000e+00 0.0000000000000000e+00 0.0000000000000000e+00 0.0000000000000000e+00  1.0811052666655785e+00 -7.2477692346317554e-02 0.0000000000000000e+00 -7.2477692346317554e-02 1.5378950217313966e-02 0.0000000000000000e+00 0.0000000000000000e+00 0.0000000000000000e+00 0.0000000000000000e+00  1.0774140620633155e+00 -7.2936262600398399e-02 0.0000000000000000e+00 -7.2936262600398399e-02 1.4916748479956922e-02 0.0000000000000000e+00 0.0000000000000000e+00 0.0000000000000000e+00 0.0000000000000000e+00  1.0734875190699888e+00 -7.3434750125016823e-02 0.0000000000000000e+00 -7.3434750125016823e-02 1.4447115368020702e-02 0.0000000000000000e+00 0.0000000000000000e+00 0.0000000000000000e+00 0.0000000000000000e+00  1.0695225522581604e+00 -7.3863461329479782e-02 0.0000000000000000e+00 -7.3863461329479782e-02 1.3968834891318681e-02 0.0000000000000000e+00 0.0000000000000000e+00 0.0000000000000000e+00 0.0000000000000000e+00  1.0658126247842330e+00 -7.4270194505255183e-02 0.0000000000000000e+00 -7.4270194505255183e-02 1.3547576539634374e-02 0.0000000000000000e+00 0.0000000000000000e+00 0.0000000000000000e+00 0.0000000000000000e+00  1.0616640855907333e+00 -7.4719288623596572e-02 0.0000000000000000e+00 -7.4719288623596572e-02 1.3053532278329909e-02 0.0000000000000000e+00 0.0000000000000000e+00 0.0000000000000000e+00 0.0000000000000000e+00  1.0579092552698868e+00 -7.5084607725412936e-02 0.0000000000000000e+00 -7.5084607725412936e-02 1.2581832390920757e-02 0.0000000000000000e+00 0.0000000000000000e+00 0.0000000000000000e+00 0.0000000000000000e+00  1.0537276452185549e+00 -7.5469265361719065e-02 0.0000000000000000e+00 -7.5469265361719065e-02 1.2040508483570933e-02 0.0000000000000000e+00 0.0000000000000000e+00 0.0000000000000000e+00 0.0000000000000000e+00  1.0497764759029546e+00 -7.5827909834169899e-02 0.0000000000000000e+00 -7.5827909834169899e-02 1.1530938788876424e-02 0.0000000000000000e+00 0.0000000000000000e+00 0.0000000000000000e+00 0.0000000000000000e+00  1.0457408898892888e+00 -7.6094517891455896e-02 0.0000000000000000e+00 -7.6094517891455896e-02 1.0981451557381495e-02 0.0000000000000000e+00 0.0000000000000000e+00 0.0000000000000000e+00 0.0000000000000000e+00  1.0415489692185640e+00 -7.6346233904819455e-02 0.0000000000000000e+00 -7.6346233904819455e-02 1.0436540409851361e-02 0.0000000000000000e+00 0.0000000000000000e+00 0.0000000000000000e+00 0.0000000000000000e+00  1.0377560964227279e+00 -7.6599837630787079e-02 0.0000000000000000e+00 -7.6599837630787079e-02 9.9927831484517369e-03 0.0000000000000000e+00 0.0000000000000000e+00 0.0000000000000000e+00 0.0000000000000000e+00  1.0333803197916553e+00 -7.6878351757208710e-02 0.0000000000000000e+00 -7.6878351757208710e-02 9.4179676204826628e-03 0.0000000000000000e+00 0.0000000000000000e+00 0.0000000000000000e+00 0.0000000000000000e+00  1.0294895811934799e+00 -7.7107430557296505e-02 0.0000000000000000e+00 -7.7107430557296505e-02 8.9195191028125075e-03 0.0000000000000000e+00 0.0000000000000000e+00 0.0000000000000000e+00 0.0000000000000000e+00  1.0251915290138194e+00 -7.7237434180085274e-02 0.0000000000000000e+00 -7.7237434180085274e-02 8.3558805040703787e-03 0.0000000000000000e+00 0.0000000000000000e+00 0.0000000000000000e+00 0.0000000000000000e+00  1.0210832981258211e+00 -7.7412337161715999e-02 0.0000000000000000e+00 -7.7412337161715999e-02 7.8201386490480036e-03 0.0000000000000000e+00 0.0000000000000000e+00 0.0000000000000000e+00 0.0000000000000000e+00  1.0170180523968040e+00 -7.7561072351357868e-02 0.0000000000000000e+00 -7.7561072351357868e-02 7.2324090198923364e-03 0.0000000000000000e+00 0.0000000000000000e+00 0.0000000000000000e+00 0.0000000000000000e+00  1.0126060474158134e+00 -7.7715566737156669e-02 0.0000000000000000e+00 -7.7715566737156669e-02 6.6089163387611774e-03 0.0000000000000000e+00 0.0000000000000000e+00 0.0000000000000000e+00 0.0000000000000000e+00  1.0087196854283700e+00 -7.7769440017685793e-02 0.0000000000000000e+00 -7.7769440017685793e-02 6.0745874195505516e-03 0.0000000000000000e+00 0.0000000000000000e+00 0.0000000000000000e+00 0.0000000000000000e+00  1.0043215820062501e+00 -7.7865702320208882e-02 0.0000000000000000e+00 -7.7865702320208882e-02 5.4501108780313588e-03 0.0000000000000000e+00 0.0000000000000000e+00 0.0000000000000000e+00 0.0000000000000000e+00  1.0003122898258316e+00 -7.7832104690093218e-02 0.0000000000000000e+00 -7.7832104690093204e-02 4.8813449948771704e-03 0.0000000000000000e+00 0.0000000000000000e+00 0.0000000000000000e+00 0.0000000000000000e+00  9.9610514993836297e-01 -7.7763514543171111e-02 0.0000000000000000e+00 -7.7763514543171111e-02 4.2773695595592119e-03 0.0000000000000000e+00 0.0000000000000000e+00 0.0000000000000000e+00 0.0000000000000000e+00  9.9174706087817910e-01 -7.7767024473312019e-02 0.0000000000000000e+00 -7.7767024473312019e-02 3.6334751397328908e-03 0.0000000000000000e+00 0.0000000000000000e+00 0.0000000000000000e+00 0.0000000000000000e+00  9.8781505456852448e-01 -7.7647367451483804e-02 0.0000000000000000e+00 -7.7647367451483804e-02 3.0749347883417904e-03 0.0000000000000000e+00 0.0000000000000000e+00 0.0000000000000000e+00 0.0000000000000000e+00  9.8338472840716662e-01 -7.7524493634513733e-02 0.0000000000000000e+00 -7.7524493634513733e-02 2.3405461842740454e-03 0.0000000000000000e+00 0.0000000000000000e+00 0.0000000000000000e+00 0.0000000000000000e+00  9.7938855427969140e-01 -7.7455047669886340e-02 0.0000000000000000e+00 -7.7455047669886354e-02 1.7982489776181393e-03 0.0000000000000000e+00 0.0000000000000000e+00 0.0000000000000000e+00 0.0000000000000000e+00  9.7503184644211705e-01 -7.7258804470271253e-02 0.0000000000000000e+00 -7.7258804470271253e-02 1.1624700658513128e-03 0.0000000000000000e+0