<?xml version="1.0"?>
<VTKFile type="UnstructuredGrid"  version="0.1"  >
<UnstructuredGrid>
<Piece  NumberOfPoints="4279" NumberOfCells="6774">
<Points>
<DataArray  type="Float64"  NumberOfComponents="3"  format="ascii">0 0.01 0  10 0.01 0  0 1.013256116745685 0  10 1.013256116745685 0  0.007129524987038337 0.009997491741717768 0  0.01258064459049757 0.00999219056738478 0  0.01872173241756402 0.009982708334120727 0  0.02429919625640796 0.009970876572043954 0  0.03017238705920286 0.009955108531615313 0  0.03612352734296466 0.0099356743715591 0  0.04164979236492252 0.009914517792428084 0  0.04780928449023854 0.009887415768096998 0  0.05327287671237849 0.009860276931383746 0  0.0593436395885565 0.009826715421083503 0  0.06505608699933001 0.009791870631895848 0  0.07077243060783153 0.009753845329312128 0  0.07684085351634186 0.009710036052663748 0  0.08230528612367993 0.009667566921662384 0  0.08846525752759338 0.009616276826848907 0  0.09398926586603956 0.0095672187064786 0  0.09994377871281757 0.009511110804477986 0  0.10581288515308 0.009452550633355501 0  0.1113930001121819 0.009393893683773193 0  0.1175326299024069 0.009326020378011352 0  0.122983161250664 0.009262856809916281 0  0.1290978349347763 0.009188765415777931 0  0.1347300222736412 0.00911751981665075 0  0.1405327472005438 0.009041131768776852 0  0.1465421455697866 0.008958856277281909 0  0.1520341809431761 0.008880870879718691 0  0.1581991754706344 0.00879018143976357 0  0.1636834803794234 0.008706732874359017 0  0.1697073563005918 0.008612096527554045 0  0.1754901396361989 0.008518345936558386 0  0.1811391035120075 0.008424050210098115 0  0.1872444279222087 0.00831915423323064 0  0.1926961446341008 0.008222899998379215 0  0.198841090009393 0.008111516418624823 0  0.2044064770158165 0.008008028244452866 0  0.2102948627703611 0.007895869216798803 0  0.2162299794791283 0.007780085801116003 0  0.2217647046821167 0.007669675498109103 0  0.2279204403470532 0.007544154739747676 0  0.2333791472114919 0.007430485124751003 0  0.2394590817234977 0.0073013084386626 0  0.245152498789355 0.007177928079207972 0  0.2508861115607116 0.007051356111670669 0  0.2569419868439766 0.006915186417023598 0  0.2624099649457279 0.006790084113692359 0  0.2685711825796066 0.006646722567663751 0  0.274083748205357 0.006516341894728842 0  0.2800541704182985 0.00637292855786236 0  0.2859022845836161 0.006230279166502627 0  0.291495955429921 0.006091868246150131 0  0.2976275706217687 0.005937986548763313 0  0.3030757324287757 0.005799406374294222 0  0.3091980118239236 0.005641654227187252 0  0.3148109405089491 0.005495191514879527 0  0.3206341933715942 0.005341435282378838 0  0.3266248575896781 0.005181393525330103 0  0.3321252080346692 0.005032833254881577 0  0.3382880718234609 0.004864596209960478 0  0.3437628463580178 0.004713611578807419 0  0.3498021006600692 0.004545443593512952 0  0.3555594631656461 0.004383601001460968 0  0.3612291099056053 0.004222822711549606 0  0.3673210805066339 0.004048576418709386 0  0.3727746135437823 0.003891330909934085 0  0.3789246700786391 0.003712634483246944 0  0.3844721023230384 0.00355025746928806 0  0.3903845048135511 0.003376011435332509 0  0.3962935688476314 0.003200699755406988 0  0.4018430601204535 0.00303505085978487 0  0.4079921977692303 0.002850427660455144 0  0.4134449905916002 0.002685819499171436 0  0.4195385366679084 0.002500937932218923 0  0.425204482428441 0.002328206591247292 0  0.4309651825948974 0.00215183074136113 0  0.4370014133195289 0.001966263547608745 0  0.4424769325836848 0.00179732019881714 0  0.4486395183564056 0.001606544730410899 0  0.4541373275735043 0.001435838569361521 0  0.4601308451156257 0.001249254088784412 0  0.4659488863550298 0.001067707976620331 0  0.471564807260988 0.0008921302908496037 0  0.4776843759254726 0.0007004920228137959 0  0.4831317484445766 0.0005296836585198918 0  0.4892643513384632 0.0003372062279158936 0  0.4948528283485032 0.000161696161435303 0  0.5007056813361916 -2.216943068070812e-05 0  0.5066699093509902 -0.000209526046556915 0  0.5121845298566023 -0.0003826949545447442 0  0.5183439831944545 -0.0005759742926309219 0  0.5238088617282698 -0.0007472800272428554 0  0.5298681543527348 -0.0009369594486414562 0  0.5355929349139432 -0.001115856450691032 0  0.5412927239341832 -0.001293613669039852 0  0.5473668732672543 -0.001482588207084091 0  0.5528259073001393 -0.001651967505962102 0  0.5589819336317072 -0.001842386787779294 0  0.5645100189486582 -0.002012797049529044 0  0.5704524332663232 -0.002195301346534757 0  0.5763298911552834 -0.002375058665203144 0  0.5819006708717119 -0.002544689651648297 0  0.5880413281562127 -0.002730768313747055 0  0.5934904284812221 -0.002895042191696308 0  0.5995995320960693 -0.003078202338538874 0  0.605236779888003 -0.003246210954182579 0  0.6110299855290301 -0.003417806240976177 0  0.6170432999212266 -0.00359472323302265 0  0.6225307972792151 -0.00375505261922207 0  0.6286944373476531 -0.003933803567825084 0  0.6341794289295242 -0.004091634709336539 0  0.6401977648984302 -0.004263413669385436 0  0.6459846030577213 -0.004427148756161272 0  0.6516277670629291 -0.004585409549508515 0  0.6577342305863492 -0.004755038487876419 0  0.6631843111407589 -0.004904958327357115 0  0.6693271588517591 -0.005072208653571043 0  0.6748942591145469 -0.005222152905474348 0  0.6807781354428797 -0.005378892074409919 0  0.6867158102497221 -0.005535201343768038 0  0.6922478556369909 -0.005679100421160843 0  0.6984036264198542 -0.005837205328254034 0  0.7038624132928571 -0.005975584427524931 0  0.7099402809449575 -0.006127588021236129 0  0.7156361945945205 -0.006268012368771779 0  0.7213667017809595 -0.006407263887957157 0  0.7274241898103784 -0.006552202568912044 0  0.7328913375361901 -0.006680980644346233 0  0.7390522654079078 -0.006823736587757829 0  0.7445663161830813 -0.006949337256267011 0  0.7505345306161221 -0.007082931996795786 0  0.7563856967966242 -0.007211490056377221 0  0.7619775509571868 -0.007332073958440476 0  0.7681106054434813 -0.007461725199742056 0  0.7735594228940573 -0.007574589702563127 0  0.7796809699364847 -0.007698739982391196 0  0.7852974086111042 -0.007810142587226769 0  0.7911178568436495 -0.007923025648348906 0  0.797112403703894 -0.008036515862006795 0  0.8026119630288198 -0.008138129173272899 0  0.8087760180262171 -0.008249131188213875 0  0.814253500572072 -0.008345174877796967 0  0.8202905515677629 -0.008448166667805387 0  0.8260544286221699 -0.008543663134562481 0  0.831720415905675 -0.008634807324656511 0  0.8378167080097026 -0.008729817306667463 0  0.8432709709919499 -0.008812108559864256 0  0.8494209576248264 -0.008901791974276371 0  0.8549745826348545 -0.008979924427376591 0  0.8608814329347291 -0.009060026011188804 0  0.8667998142885592 -0.009137155111096256 0  0.8723460990452367 -0.009206568509458774 0  0.8784989383774584 -0.009280301817794542 0  0.8839552890388401 -0.009342788637451834 0  0.8900456692707091 -0.009409293585850673 0  0.8957233874467343 -0.009468190513990782 0  0.9014754209053449 -0.009524786393944277 0  0.9075213579987256 -0.009580921173179099 0  0.9129954731058688 -0.009628765913494807 0  0.9191593188847452 -0.009679229788646495 0  0.9246655330424429 -0.009721240864333262 0  0.9306503084472221 -0.009763603884533442 0  0.9364847200361547 -0.009801580348484516 0  0.9420914259676206 -0.009834972127394636 0  0.948219177636862 -0.009867976960504428 0  0.9536688877131657 -0.009894257783109666 0  0.9597979104438458 -0.009920349306153329 0  0.9654020314719589 -0.009940987600901847 0  0.9712398170272581 -0.009959209624459757 0  0.9772219132298864 -0.009974407121723252 0  0.9827297975109929 -0.009985285083248089 0  0.9888934840407251 -0.009993913310034224 0  0.9943667421923366 -0.009998434045983932 0  1.000414962337846 -0.009999991502249178 0  1.00616395254491 -0.009998125110441144 0  1.011844857354635 -0.009993077234903055 0  1.017933801412069 -0.009984132829796667 0  1.023390946643176 -0.00997301205183276 0  1.029544679732296 -0.009956955598792184 0  1.035089558108845 -0.009939300412459717 0  1.041010936359372 -0.009917116481575694 0  1.04691554237944 -0.00989157814857561 0  1.052471258615448 -0.009864440751261633 0  1.05862104751389 -0.009830897850136421 0  1.064075481579663 -0.009798076706746352 0  1.070173358231585 -0.009757978136698224 0  1.075837941143087 -0.00971752009646258 0  1.081604377355612 -0.009673173917302162 0  1.087640686528322 -0.009623351755525641 0  1.093119387704205 -0.009575135453199036 0  1.099284093826516 -0.009517491101966447 0  1.104783734376909 -0.009463052176492596 0  1.110779897618174 -0.009400480030121557 0  1.116599992234411 -0.00933655469875222 0  1.122217899723542 -0.009271889359757672 0  1.128339818747432 -0.009198135031144493 0  1.133789446190431 -0.00912961705214143 0  1.139923317158062 -0.009049295973540348 0  1.145515844317945 -0.008973134373133167 0  1.151367773813766 -0.008890475161473248 0  1.157336906671575 -0.008803064948780913 0  1.16285160438384 -0.008719557366803981 0  1.16901331600552 -0.008623157866544266 0  1.174481522907442 -0.00853490108265173 0  1.180539122189597 -0.008434191931863186 0  1.186271617394136 -0.008336073959344166 0  1.191966996821913 -0.008235914041393521 0  1.198046448076202 -0.008126091334838595 0  1.203505695906331 -0.008024945109277802 0  1.209661806077474 -0.007908057515838151 0  1.21519584913737 -0.007800455577732041 0  1.221132109188887 -0.00768241304184519 0  1.227019087412133 -0.007562711583992629 0  1.232585135446325 -0.007447155722966398 0  1.238729389023077 -0.007316953404904543 0  1.244180486899644 -0.007199156086382225 0  1.250286093435722 -0.007064709646262071 0  1.255932842016573 -0.006938052500145445 0  1.261716857103797 -0.006806053534187844 0  1.26773845151126 -0.006666245775332091 0  1.273222687278595 -0.006536836953056475 0  1.279386853652711 -0.00638906998029936 0  1.284876650734994 -0.006255450389977176 0  1.290887326898431 -0.00610702037198264 0  1.296685536664392 -0.00596177282270944 0  1.30231949087952 -0.005818744638503708 0  1.308431215520824
[...]
<PointData  Tensors="Total Stress"> 
<DataArray  type="Float64"  Name="Total Stress"  NumberOfComponents="9" format="ascii">1.2288380441923774e+00 2.1119212927713376e-05 0.0000000000000000e+00 2.1119212927713380e-05 3.7424738316641358e-02 0.0000000000000000e+00 0.0000000000000000e+00 0.0000000000000000e+00 0.0000000000000000e+00  1.2288380441923774e+00 2.1119212927713376e-05 0.0000000000000000e+00 2.1119212927713380e-05 3.7424738316641358e-02 0.0000000000000000e+00 0.0000000000000000e+00 0.0000000000000000e+00 0.0000000000000000e+00  8.6240816779356932e-01 4.6974110954101410e-05 0.0000000000000000e+00 4.6974110954101410e-05 -3.4407995936863180e-03 0.0000000000000000e+00 0.0000000000000000e+00 0.0000000000000000e+00 0.0000000000000000e+00  8.6240816779356932e-01 4.6974110954101410e-05 0.0000000000000000e+00 4.6974110954101410e-05 -3.4407995936863180e-03 0.0000000000000000e+00 0.0000000000000000e+00 0.0000000000000000e+00 0.0000000000000000e+00  1.2287767089522574e+00 -1.8747722601406454e-03 0.0000000000000000e+00 -1.8747722601406454e-03 3.7208083067827399e-02 0.0000000000000000e+00 0.0000000000000000e+00 0.0000000000000000e+00 0.0000000000000000e+00  1.2286279771177642e+00 -3.3388552668725544e-03 0.0000000000000000e+00 -3.3388552668725544e-03 3.7255647371409135e-02 0.0000000000000000e+00 0.0000000000000000e+00 0.0000000000000000e+00 0.0000000000000000e+00  1.2285366634191786e+00 -4.9109616059780196e-03 0.0000000000000000e+00 -4.9109616059780196e-03 3.7361433865405809e-02 0.0000000000000000e+00 0.0000000000000000e+00 0.0000000000000000e+00 0.0000000000000000e+00  1.2281642223689391e+00 -6.3855010161039368e-03 0.0000000000000000e+00 -6.3855010161039368e-03 3.7139648594999554e-02 0.0000000000000000e+00 0.0000000000000000e+00 0.0000000000000000e+00 0.0000000000000000e+00  1.2277853663567406e+00 -7.9602660697310913e-03 0.0000000000000000e+00 -7.9602660697310913e-03 3.7262537254803746e-02 0.0000000000000000e+00 0.0000000000000000e+00 0.0000000000000000e+00 0.0000000000000000e+00  1.2273420531691026e+00 -9.5060059365768834e-03 0.0000000000000000e+00 -9.5060059365768834e-03 3.7091302060329304e-02 0.0000000000000000e+00 0.0000000000000000e+00 0.0000000000000000e+00 0.0000000000000000e+00  1.2268811057538977e+00 -1.0965753394910667e-02 0.0000000000000000e+00 -1.0965753394910667e-02 3.7121299645343671e-02 0.0000000000000000e+00 0.0000000000000000e+00 0.0000000000000000e+00 0.0000000000000000e+00  1.2262384698042685e+00 -1.2602449308306167e-02 0.0000000000000000e+00 -1.2602449308306167e-02 3.6993999995401851e-02 0.0000000000000000e+00 0.0000000000000000e+00 0.0000000000000000e+00 0.0000000000000000e+00  1.2256124937636088e+00 -1.4039888850794538e-02 0.0000000000000000e+00 -1.4039888850794538e-02 3.6893374725908416e-02 0.0000000000000000e+00 0.0000000000000000e+00 0.0000000000000000e+00 0.0000000000000000e+00  1.2248132581182494e+00 -1.5608402113251959e-02 0.0000000000000000e+00 -1.5608402113251959e-02 3.6762253738037147e-02 0.0000000000000000e+00 0.0000000000000000e+00 0.0000000000000000e+00 0.0000000000000000e+00  1.2239723892477850e+00 -1.7096740316042684e-02 0.0000000000000000e+00 -1.7096740316042684e-02 3.6629695802583781e-02 0.0000000000000000e+00 0.0000000000000000e+00 0.0000000000000000e+00 0.0000000000000000e+00  1.2230915285525601e+00 -1.8518043191260259e-02 0.0000000000000000e+00 -1.8518043191260259e-02 3.6489627853301503e-02 0.0000000000000000e+00 0.0000000000000000e+00 0.0000000000000000e+00 0.0000000000000000e+00  1.2220898218447025e+00 -2.0043223671404591e-02 0.0000000000000000e+00 -2.0043223671404591e-02 3.6418724364376480e-02 0.0000000000000000e+00 0.0000000000000000e+00 0.0000000000000000e+00 0.0000000000000000e+00  1.2209416897413499e+00 -2.1472004877666758e-02 0.0000000000000000e+00 -2.1472004877666758e-02 3.6122804099504906e-02 0.0000000000000000e+00 0.0000000000000000e+00 0.0000000000000000e+00 0.0000000000000000e+00  1.2199788037242691e+00 -2.2955855274862269e-02 0.0000000000000000e+00 -2.2955855274862269e-02 3.6168933151275527e-02 0.0000000000000000e+00 0.0000000000000000e+00 0.0000000000000000e+00 0.0000000000000000e+00  1.2186393117249503e+00 -2.4371016326403691e-02 0.0000000000000000e+00 -2.4371016326403691e-02 3.5838163420226714e-02 0.0000000000000000e+00 0.0000000000000000e+00 0.0000000000000000e+00 0.0000000000000000e+00  1.2175966736182253e+00 -2.5775690559310619e-02 0.0000000000000000e+00 -2.5775690559310619e-02 3.5866798020001409e-02 0.0000000000000000e+00 0.0000000000000000e+00 0.0000000000000000e+00 0.0000000000000000e+00  1.2161058108885610e+00 -2.7231044201222278e-02 0.0000000000000000e+00 -2.7231044201222278e-02 3.5616358431433771e-02 0.0000000000000000e+00 0.0000000000000000e+00 0.0000000000000000e+00 0.0000000000000000e+00  1.2149378521327765e+00 -2.8596001042961908e-02 0.0000000000000000e+00 -2.8596001042961908e-02 3.5638975036995660e-02 0.0000000000000000e+00 0.0000000000000000e+00 0.0000000000000000e+00 0.0000000000000000e+00  1.2133577615003641e+00 -3.0160065684822396e-02 0.0000000000000000e+00 -3.0160065684822396e-02 3.5449060113543783e-02 0.0000000000000000e+00 0.0000000000000000e+00 0.0000000000000000e+00 0.0000000000000000e+00  1.2118138855215019e+00 -3.1537934190589041e-02 0.0000000000000000e+00 -3.1537934190589041e-02 3.5140608454589488e-02 0.0000000000000000e+00 0.0000000000000000e+00 0.0000000000000000e+00 0.0000000000000000e+00  1.2101291298230725e+00 -3.3090671473160839e-02 0.0000000000000000e+00 -3.3090671473160846e-02 3.5096556282513590e-02 0.0000000000000000e+00 0.0000000000000000e+00 0.0000000000000000e+00 0.0000000000000000e+00  1.2084867321275929e+00 -3.4436859506095437e-02 0.0000000000000000e+00 -3.4436859506095437e-02 3.4698050334764127e-02 0.0000000000000000e+00 0.0000000000000000e+00 0.0000000000000000e+00 0.0000000000000000e+00  1.2066798134296635e+00 -3.5693959277186132e-02 0.0000000000000000e+00 -3.5693959277186132e-02 3.4351125814298014e-02 0.0000000000000000e+00 0.0000000000000000e+00 0.0000000000000000e+00 0.0000000000000000e+00  1.2046303415410944e+00 -3.7203271740772259e-02 0.0000000000000000e+00 -3.7203271740772259e-02 3.4253769194014877e-02 0.0000000000000000e+00 0.0000000000000000e+00 0.0000000000000000e+00 0.0000000000000000e+00  1.2028955916799267e+00 -3.8466836674207715e-02 0.0000000000000000e+00 -3.8466836674207715e-02 3.4079925371067660e-02 0.0000000000000000e+00 0.0000000000000000e+00 0.0000000000000000e+00 0.0000000000000000e+00  1.2008483926533349e+00 -3.9877866324812189e-02 0.0000000000000000e+00 -3.9877866324812189e-02 3.3806212384980397e-02 0.0000000000000000e+00 0.0000000000000000e+00 0.0000000000000000e+00 0.0000000000000000e+00  1.1988410836097214e+00 -4.1114042384087009e-02 0.0000000000000000e+00 -4.1114042384087009e-02 3.3475993780891208e-02 0.0000000000000000e+00 0.0000000000000000e+00 0.0000000000000000e+00 0.0000000000000000e+00  1.1967940659977763e+00 -4.2425724718940239e-02 0.0000000000000000e+00 -4.2425724718940239e-02 3.3307172171054590e-02 0.0000000000000000e+00 0.0000000000000000e+00 0.0000000000000000e+00 0.0000000000000000e+00  1.1946103742510452e+00 -4.3694625770462688e-02 0.0000000000000000e+00 -4.3694625770462688e-02 3.3025869339162392e-02 0.0000000000000000e+00 0.0000000000000000e+00 0.0000000000000000e+00 0.0000000000000000e+00  1.1924635129948320e+00 -4.4915675315635922e-02 0.0000000000000000e+00 -4.4915675315635922e-02 3.2835377906359417e-02 0.0000000000000000e+00 0.0000000000000000e+00 0.0000000000000000e+00 0.0000000000000000e+00  1.1901135054806313e+00 -4.6264349710824285e-02 0.0000000000000000e+00 -4.6264349710824285e-02 3.2578654671052337e-02 0.0000000000000000e+00 0.0000000000000000e+00 0.0000000000000000e+00 0.0000000000000000e+00  1.1879244946928444e+00 -4.7504483254537967e-02 0.0000000000000000e+00 -4.7504483254537967e-02 3.2378426316616721e-02 0.0000000000000000e+00 0.0000000000000000e+00 0.0000000000000000e+00 0.0000000000000000e+00  1.1854190300895786e+00 -4.8809529238821495e-02 0.0000000000000000e+00 -4.8809529238821495e-02 3.2017503747338957e-02 0.0000000000000000e+00 0.0000000000000000e+00 0.0000000000000000e+00 0.0000000000000000e+00  1.1829319325222740e+00 -4.9983100208601840e-02 0.0000000000000000e+00 -4.9983100208601840e-02 3.1807730788646744e-02 0.0000000000000000e+00 0.0000000000000000e+00 0.0000000000000000e+00 0.0000000000000000e+00  1.1803624302061808e+00 -5.1200520511599734e-02 0.0000000000000000e+00 -5.1200520511599734e-02 3.1424760926512758e-02 0.0000000000000000e+00 0.0000000000000000e+00 0.0000000000000000e+00 0.0000000000000000e+00  1.1777503506894309e+00 -5.2464285372531380e-02 0.0000000000000000e+00 -5.2464285372531380e-02 3.1060856939611341e-02 0.0000000000000000e+00 0.0000000000000000e+00 0.0000000000000000e+00 0.0000000000000000e+00  1.1752153304265522e+00 -5.3599608794662738e-02 0.0000000000000000e+00 -5.3599608794662738e-02 3.0742326990600043e-02 0.0000000000000000e+00 0.0000000000000000e+00 0.0000000000000000e+00 0.0000000000000000e+00  1.1723445651273043e+00 -5.4835646814912382e-02 0.0000000000000000e+00 -5.4835646814912382e-02 3.0365891038294117e-02 0.0000000000000000e+00 0.0000000000000000e+00 0.0000000000000000e+00 0.0000000000000000e+00  1.1697307280840288e+00 -5.5966741846517884e-02 0.0000000000000000e+00 -5.5966741846517884e-02 3.0077215790089554e-02 0.0000000000000000e+00 0.0000000000000000e+00 0.0000000000000000e+00 0.0000000000000000e+00  1.1668051016280299e+00 -5.7020614048370742e-02 0.0000000000000000e+00 -5.7020614048370742e-02 2.9723678198321283e-02 0.0000000000000000e+00 0.0000000000000000e+00 0.0000000000000000e+00 0.0000000000000000e+00  1.1639921581488890e+00 -5.8074260125457050e-02 0.0000000000000000e+00 -5.8074260125457050e-02 2.9381528211791862e-02 0.0000000000000000e+00 0.0000000000000000e+00 0.0000000000000000e+00 0.0000000000000000e+00  1.1610618953502245e+00 -5.9196926955519091e-02 0.0000000000000000e+00 -5.9196926955519091e-02 2.9019056507948872e-02 0.0000000000000000e+00 0.0000000000000000e+00 0.0000000000000000e+00 0.0000000000000000e+00  1.1579091252101485e+00 -6.0306726746696439e-02 0.0000000000000000e+00 -6.0306726746696439e-02 2.8623504507723566e-02 0.0000000000000000e+00 0.0000000000000000e+00 0.0000000000000000e+00 0.0000000000000000e+00  1.1549506511649617e+00 -6.1267824183054653e-02 0.0000000000000000e+00 -6.1267824183054653e-02 2.8163462999036732e-02 0.0000000000000000e+00 0.0000000000000000e+00 0.0000000000000000e+00 0.0000000000000000e+00  1.1517712772573885e+00 -6.2349533140706952e-02 0.0000000000000000e+00 -6.2349533140706952e-02 2.7860081055739946e-02 0.0000000000000000e+00 0.0000000000000000e+00 0.0000000000000000e+00 0.0000000000000000e+00  1.1485905554551004e+00 -6.3343617854658182e-02 0.0000000000000000e+00 -6.3343617854658182e-02 2.7307042803969433e-02 0.0000000000000000e+00 0.0000000000000000e+00 0.0000000000000000e+00 0.0000000000000000e+00  1.1454154167211159e+00 -6.4406023592206874e-02 0.0000000000000000e+00 -6.4406023592206874e-02 2.6979798401940695e-02 0.0000000000000000e+00 0.0000000000000000e+00 0.0000000000000000e+00 0.0000000000000000e+00  1.1419902398159296e+00 -6.5323322809650239e-02 0.0000000000000000e+00 -6.5323322809650239e-02 2.6450876497880426e-02 0.0000000000000000e+00 0.0000000000000000e+00 0.0000000000000000e+00 0.0000000000000000e+00  1.1389306145260172e+00 -6.6239198073879388e-02 0.0000000000000000e+00 -6.6239198073879388e-02 2.6158595360207784e-02 0.0000000000000000e+00 0.0000000000000000e+00 0.0000000000000000e+00 0.0000000000000000e+00  1.1352702691349250e+00 -6.7206556468930492e-02 0.0000000000000000e+00 -6.7206556468930492e-02 2.5591207983848445e-02 0.0000000000000000e+00 0.0000000000000000e+00 0.0000000000000000e+00 0.0000000000000000e+00  1.1319735148463648e+00 -6.8075233360899268e-02 0.0000000000000000e+00 -6.8075233360899268e-02 2.5091960523732946e-02 0.0000000000000000e+00 0.0000000000000000e+00 0.0000000000000000e+00 0.0000000000000000e+00  1.1282499006969509e+00 -6.8946455587860972e-02 0.0000000000000000e+00 -6.8946455587860972e-02 2.4522860406545815e-02 0.0000000000000000e+00 0.0000000000000000e+00 0.0000000000000000e+00 0.0000000000000000e+00  1.1247764384795116e+00 -6.9802156059735512e-02 0.0000000000000000e+00 -6.9802156059735512e-02 2.3988766585790442e-02 0.0000000000000000e+00 0.0000000000000000e+00 0.0000000000000000e+00 0.0000000000000000e+00  1.1211323789423844e+00 -7.0569850161954287e-02 0.0000000000000000e+00 -7.0569850161954287e-02 2.3428476676154466e-02 0.0000000000000000e+00 0.0000000000000000e+00 0.0000000000000000e+00 0.0000000000000000e+00  1.1173657735659561e+00 -7.1355904135828999e-02 0.0000000000000000e+00 -7.1355904135828999e-02 2.2860853128046525e-02 0.0000000000000000e+00 0.0000000000000000e+00 0.0000000000000000e+00 0.0000000000000000e+00  1.1138519186560878e+00 -7.2103184140907578e-02 0.0000000000000000e+00 -7.2103184140907578e-02 2.2359117562584054e-02 0.0000000000000000e+00 0.0000000000000000e+00 0.0000000000000000e+00 0.0000000000000000e+00  1.1099829134719372e+00 -7.2825752365818883e-02 0.0000000000000000e+00 -7.2825752365818883e-02 2.1794072476102003e-02 0.0000000000000000e+00 0.0000000000000000e+00 0.0000000000000000e+00 0.0000000000000000e+00  1.1063859768862139e+00 -7.3510311507776302e-02 0.0000000000000000e+00 -7.3510311507776302e-02 2.1157426384696625e-02 0.0000000000000000e+00 0.0000000000000000e+00 0.0000000000000000e+00 0.0000000000000000e+00  1.1026467350826059e+00 -7.4060180841631990e-02 0.0000000000000000e+00 -7.4060180841631990e-02 2.0685838905985965e-02 0.0000000000000000e+00 0.0000000000000000e+00 0.0000000000000000e+00 0.0000000000000000e+00  1.0986934101223171e+00 -7.4646680328967902e-02 0.0000000000000000e+00 -7.4646680328967902e-02 1.9989342103860424e-02 0.0000000000000000e+00 0.0000000000000000e+00 0.0000000000000000e+00 0.0000000000000000e+00  1.0951259994167786e+00 -7.5137319848969833e-02 0.0000000000000000e+00 -7.5137319848969833e-02 1.9522148226114457e-02 0.0000000000000000e+00 0.0000000000000000e+00 0.0000000000000000e+00 0.0000000000000000e+00  1.0909365958481361e+00 -7.5853401305257945e-02 0.0000000000000000e+00 -7.5853401305257945e-02 1.8884149858179999e-02 0.0000000000000000e+00 0.0000000000000000e+00 0.0000000000000000e+00 0.0000000000000000e+00  1.0871264356146375e+00 -7.6468033146844930e-02 0.0000000000000000e+00 -7.6468033146844930e-02 1.8298949911871695e-02 0.0000000000000000e+00 0.0000000000000000e+00 0.0000000000000000e+00 0.0000000000000000e+00  1.0833305615801803e+00 -7.6747398617114201e-02 0.0000000000000000e+00 -7.6747398617114188e-02 1.7844029750668445e-02 0.0000000000000000e+00 0.0000000000000000e+00 0.0000000000000000e+00 0.0000000000000000e+00  1.0796211839089294e+00 -7.7169727569270069e-02 0.0000000000000000e+00 -7.7169727569270083e-02 1.7378681889389392e-02 0.0000000000000000e+00 0.0000000000000000e+00 0.0000000000000000e+00 0.0000000000000000e+00  1.0755479385888562e+00 -7.7865624901716668e-02 0.0000000000000000e+00 -7.7865624901716668e-02 1.6879458950737107e-02 0.0000000000000000e+00 0.0000000000000000e+00 0.0000000000000000e+00 0.0000000000000000e+00  1.0715648761292209e+00 -7.8303513077953080e-02 0.0000000000000000e+00 -7.8303513077953080e-02 1.6439257458673386e-02 0.0000000000000000e+00 0.0000000000000000e+00 0.0000000000000000e+00 0.0000000000000000e+00  1.0676423806422224e+00 -7.8868254555936101e-02 0.0000000000000000e+00 -7.8868254555936101e-02 1.5851610370290859e-02 0.0000000000000000e+00 0.0000000000000000e+00 0.0000000000000000e+00 0.0000000000000000e+00  1.0632785888531582e+00 -7.9479503241660171e-02 0.0000000000000000e+00 -7.9479503241660171e-02 1.5285003307119710e-02 0.0000000000000000e+00 0.0000000000000000e+00 0.0000000000000000e+00 0.0000000000000000e+00  1.0595324522726151e+00 -7.9816383440212441e-02 0.0000000000000000e+00 -7.9816383440212441e-02 1.4692117542153443e-02 0.0000000000000000e+00 0.0000000000000000e+00 0.0000000000000000e+00 0.0000000000000000e+00  1.0551172238143445e+00 -8.0265757262528672e-02 0.0000000000000000e+00 -8.0265757262528672e-02 1.4108083272819779e-02 0.0000000000000000e+00 0.0000000000000000e+00 0.0000000000000000e+00 0.0000000000000000e+00  1.0508483903774049e+00 -8.0698833473005313e-02 0.0000000000000000e+00 -8.0698833473005313e-02 1.3413757264451903e-02 0.0000000000000000e+00 0.0000000000000000e+00 0.0000000000000000e+00 0.0000000000000000e+00  1.0468279634775703e+00 -8.0960163725186843e-02 0.0000000000000000e+00 -8.0960163725186843e-02 1.2831584859053330e-02 0.0000000000000000e+00 0.0000000000000000e+00 0.0000000000000000e+00 0.0000000000000000e+00  1.0424259626900321e+00 -8.1258970002196243e-02 0.0000000000000000e+00 -8.1258970002196243e-02 1.2063047608679052e-02 0.0000000000000000e+00 0.0000000000000000e+00 0.0000000000000000e+00 0.0000000000000000e+00  1.0385398859742674e+00 -8.1479459132801899e-02 0.0000000000000000e+00 -8.1479459132801899e-02 1.1424072664647705e-02 0.0000000000000000e+00 0.0000000000000000e+00 0.0000000000000000e+00 0.0000000000000000e+00  1.0340218772345444e+00 -8.1734757865909960e-02 0.0000000000000000e+00 -8.1734757865909960e-02 1.0741125383763548e-02 0.0000000000000000e+00 0.0000000000000000e+00 0.0000000000000000e+00 0.0000000000000000e+00  1.0300253723588275e+00 -8.1909310156707826e-02 0.0000000000000000e+00 -8.1909310156707826e-02 1.0073791155167397e-02 0.0000000000000000e+00 0.0000000000000000e+00 0.0000000000000000e+00 0.0000000000000000e+00  1.0256153852323253e+00 -8.2136697448311813e-02 0.0000000000000000e+00 -8.2136697448311813e-02 9.3973354177594413e-03 0.0000000000000000e+00 0.0000000000000000e+00 0.0000000000000000e+00 0.0000000000000000e+00  1.0213243738750279e+00 -8.2277140146422581e-02 0.0000000000000000e+00 -8.2277140146422581e-02 8.6989050104858030e-03 0.0000000000000000e+00 0.0000000000000000e+00 0.0000000000000000e+00 0.0000000000000000e+00  1.0171771829846856e+00 -8.2440765940451938e-02 0.0000000000000000e+00 -8.2440765940451938e-02 8.0045987224013695e-03 0.0000000000000000e+00 0.0000000000000000e+00 0.0000000000000000e+00 0.0000000000000000e+00  1.0127073622218135e+00 -8.2533447559078738e-02 0.0000000000000000e+00 -8.2533447559078738e-02 7.3009682795509984e-03 0.0000000000000000e+00 0.0000000000000000e+00 0.0000000000000000e+00 0.0000000000000000e+00  1.0087040338569568e+00 -8.2646806882778770e-02 0.0000000000000000e+00 -8.2646806882778770e-02 6.6389662506693998e-03 0.0000000000000000e+00 0.0000000000000000e+00 0.0000000000000000e+00 0.0000000000000000e+00  1.0041685907460285e+00 -8.2576706954396395e-02 0.0000000000000000e+00 -8.2576706954396395e-02 5.8902613872718630e-03 0.0000000000000000e+00 0.0000000000000000e+00 0.0000000000000000e+00 0.0000000000000000e+00  1.0000116300020603e+00 -8.2588094838810647e-02 0.0000000000000000e+00 -8.2588094838810633e-02 5.2328886195730983e-03 0.0000000000000000e+00 0.0000000000000000e+00 0.0000000000000000e+00 0.0000000000000000e+00  9.9566038467851969e-01 -8.2569886063142292e-02 0.0000000000000000e+00 -8.2569886063142292e-02 4.5251441084922066e-03 0.0000000000000000e+00 0.0000000000000000e+00 0.0000000000000000e+00 0.0000000000000000e+00  9.9125918809337765e-01 -8.2527859660312938e-02 0.0000000000000000e+00 -8.2527859660312924e-02 3.8001929538781965e-03 0.0000000000000000e+00 0.0000000000000000e+00 0.0000000000000000e+00 0.0000000000000000e+00  9.8718045261579657e-01 -8.2499973381316816e-02 0.0000000000000000e+00 -8.2499973381316816e-02 3.1097114720124077e-03 0.0000000000000000e+00 0.0000000000000000e+00 0.0000000000000000e+00 0.0000000000000000e+00  9.8261312674388013e-01 -8.2340541389128025e-02 0.0000000000000000e+00 -8.2340541389128025e-02 2.3517253857383669e-03 0.0000000000000000e+00 0.0000000000000000e+00 0.0000000000000000e+00 0.0000000000000000e+00  9.7855524954053996e-01 -8.2181257632680693e-02 0.0000000000000000e+00 -8.2181257632680693e-02 1.6716826741179998e-03 0.0000000000000000e+00 0.0000000000000000e+00 0.0000000000000000e+00 0.0000000000000000e+00  9.7408499642341129e-01 -8.2076736524761315e-02 0.0000000000000000e+00 -8.2076736524761315e-02 9.6361736771731260e-04 0.0000000000000000e+00 0.