<?xml version="1.0"?>
<VTKFile type="UnstructuredGrid"  version="0.1"  >
<UnstructuredGrid>
<Piece  NumberOfPoints="4278" NumberOfCells="6772">
<Points>
<DataArray  type="Float64"  NumberOfComponents="3"  format="ascii">0 0.01 0  10 0.01 0  0 1.019573477143549 0  10 1.019573477143549 0  0.007129524987038337 0.009997491741717768 0  0.01258064459049757 0.00999219056738478 0  0.01872173241756402 0.009982708334120727 0  0.02429919625640796 0.009970876572043954 0  0.03017238705920286 0.009955108531615313 0  0.03612352734296466 0.0099356743715591 0  0.04164979236492252 0.009914517792428084 0  0.04780928449023854 0.009887415768096998 0  0.05327287671237849 0.009860276931383746 0  0.0593436395885565 0.009826715421083503 0  0.06505608699933001 0.009791870631895848 0  0.07077243060783153 0.009753845329312128 0  0.07684085351634186 0.009710036052663748 0  0.08230528612367993 0.009667566921662384 0  0.08846525752759338 0.009616276826848907 0  0.09398926586603956 0.0095672187064786 0  0.09994377871281757 0.009511110804477986 0  0.10581288515308 0.009452550633355501 0  0.1113930001121819 0.009393893683773193 0  0.1175326299024069 0.009326020378011352 0  0.122983161250664 0.009262856809916281 0  0.1290978349347763 0.009188765415777931 0  0.1347300222736412 0.00911751981665075 0  0.1405327472005438 0.009041131768776852 0  0.1465421455697866 0.008958856277281909 0  0.1520341809431761 0.008880870879718691 0  0.1581991754706344 0.00879018143976357 0  0.1636834803794234 0.008706732874359017 0  0.1697073563005918 0.008612096527554045 0  0.1754901396361989 0.008518345936558386 0  0.1811391035120075 0.008424050210098115 0  0.1872444279222087 0.00831915423323064 0  0.1926961446341008 0.008222899998379215 0  0.198841090009393 0.008111516418624823 0  0.2044064770158165 0.008008028244452866 0  0.2102948627703611 0.007895869216798803 0  0.2162299794791283 0.007780085801116003 0  0.2217647046821167 0.007669675498109103 0  0.2279204403470532 0.007544154739747676 0  0.2333791472114919 0.007430485124751003 0  0.2394590817234977 0.0073013084386626 0  0.245152498789355 0.007177928079207972 0  0.2508861115607116 0.007051356111670669 0  0.2569419868439766 0.006915186417023598 0  0.2624099649457279 0.006790084113692359 0  0.2685711825796066 0.006646722567663751 0  0.274083748205357 0.006516341894728842 0  0.2800541704182985 0.00637292855786236 0  0.2859022845836161 0.006230279166502627 0  0.291495955429921 0.006091868246150131 0  0.2976275706217687 0.005937986548763313 0  0.3030757324287757 0.005799406374294222 0  0.3091980118239236 0.005641654227187252 0  0.3148109405089491 0.005495191514879527 0  0.3206341933715942 0.005341435282378838 0  0.3266248575896781 0.005181393525330103 0  0.3321252080346692 0.005032833254881577 0  0.3382880718234609 0.004864596209960478 0  0.3437628463580178 0.004713611578807419 0  0.3498021006600692 0.004545443593512952 0  0.3555594631656461 0.004383601001460968 0  0.3612291099056053 0.004222822711549606 0  0.3673210805066339 0.004048576418709386 0  0.3727746135437823 0.003891330909934085 0  0.3789246700786391 0.003712634483246944 0  0.3844721023230384 0.00355025746928806 0  0.3903845048135511 0.003376011435332509 0  0.3962935688476314 0.003200699755406988 0  0.4018430601204535 0.00303505085978487 0  0.4079921977692303 0.002850427660455144 0  0.4134449905916002 0.002685819499171436 0  0.4195385366679084 0.002500937932218923 0  0.425204482428441 0.002328206591247292 0  0.4309651825948974 0.00215183074136113 0  0.4370014133195289 0.001966263547608745 0  0.4424769325836848 0.00179732019881714 0  0.4486395183564056 0.001606544730410899 0  0.4541373275735043 0.001435838569361521 0  0.4601308451156257 0.001249254088784412 0  0.4659488863550298 0.001067707976620331 0  0.471564807260988 0.0008921302908496037 0  0.4776843759254726 0.0007004920228137959 0  0.4831317484445766 0.0005296836585198918 0  0.4892643513384632 0.0003372062279158936 0  0.4948528283485032 0.000161696161435303 0  0.5007056813361916 -2.216943068070812e-05 0  0.5066699093509902 -0.000209526046556915 0  0.5121845298566023 -0.0003826949545447442 0  0.5183439831944545 -0.0005759742926309219 0  0.5238088617282698 -0.0007472800272428554 0  0.5298681543527348 -0.0009369594486414562 0  0.5355929349139432 -0.001115856450691032 0  0.5412927239341832 -0.001293613669039852 0  0.5473668732672543 -0.001482588207084091 0  0.5528259073001393 -0.001651967505962102 0  0.5589819336317072 -0.001842386787779294 0  0.5645100189486582 -0.002012797049529044 0  0.5704524332663232 -0.002195301346534757 0  0.5763298911552834 -0.002375058665203144 0  0.5819006708717119 -0.002544689651648297 0  0.5880413281562127 -0.002730768313747055 0  0.5934904284812221 -0.002895042191696308 0  0.5995995320960693 -0.003078202338538874 0  0.605236779888003 -0.003246210954182579 0  0.6110299855290301 -0.003417806240976177 0  0.6170432999212266 -0.00359472323302265 0  0.6225307972792151 -0.00375505261922207 0  0.6286944373476531 -0.003933803567825084 0  0.6341794289295242 -0.004091634709336539 0  0.6401977648984302 -0.004263413669385436 0  0.6459846030577213 -0.004427148756161272 0  0.6516277670629291 -0.004585409549508515 0  0.6577342305863492 -0.004755038487876419 0  0.6631843111407589 -0.004904958327357115 0  0.6693271588517591 -0.005072208653571043 0  0.6748942591145469 -0.005222152905474348 0  0.6807781354428797 -0.005378892074409919 0  0.6867158102497221 -0.005535201343768038 0  0.6922478556369909 -0.005679100421160843 0  0.6984036264198542 -0.005837205328254034 0  0.7038624132928571 -0.005975584427524931 0  0.7099402809449575 -0.006127588021236129 0  0.7156361945945205 -0.006268012368771779 0  0.7213667017809595 -0.006407263887957157 0  0.7274241898103784 -0.006552202568912044 0  0.7328913375361901 -0.006680980644346233 0  0.7390522654079078 -0.006823736587757829 0  0.7445663161830813 -0.006949337256267011 0  0.7505345306161221 -0.007082931996795786 0  0.7563856967966242 -0.007211490056377221 0  0.7619775509571868 -0.007332073958440476 0  0.7681106054434813 -0.007461725199742056 0  0.7735594228940573 -0.007574589702563127 0  0.7796809699364847 -0.007698739982391196 0  0.7852974086111042 -0.007810142587226769 0  0.7911178568436495 -0.007923025648348906 0  0.797112403703894 -0.008036515862006795 0  0.8026119630288198 -0.008138129173272899 0  0.8087760180262171 -0.008249131188213875 0  0.814253500572072 -0.008345174877796967 0  0.8202905515677629 -0.008448166667805387 0  0.8260544286221699 -0.008543663134562481 0  0.831720415905675 -0.008634807324656511 0  0.8378167080097026 -0.008729817306667463 0  0.8432709709919499 -0.008812108559864256 0  0.8494209576248264 -0.008901791974276371 0  0.8549745826348545 -0.008979924427376591 0  0.8608814329347291 -0.009060026011188804 0  0.8667998142885592 -0.009137155111096256 0  0.8723460990452367 -0.009206568509458774 0  0.8784989383774584 -0.009280301817794542 0  0.8839552890388401 -0.009342788637451834 0  0.8900456692707091 -0.009409293585850673 0  0.8957233874467343 -0.009468190513990782 0  0.9014754209053449 -0.009524786393944277 0  0.9075213579987256 -0.009580921173179099 0  0.9129954731058688 -0.009628765913494807 0  0.9191593188847452 -0.009679229788646495 0  0.9246655330424429 -0.009721240864333262 0  0.9306503084472221 -0.009763603884533442 0  0.9364847200361547 -0.009801580348484516 0  0.9420914259676206 -0.009834972127394636 0  0.948219177636862 -0.009867976960504428 0  0.9536688877131657 -0.009894257783109666 0  0.9597979104438458 -0.009920349306153329 0  0.9654020314719589 -0.009940987600901847 0  0.9712398170272581 -0.009959209624459757 0  0.9772219132298864 -0.009974407121723252 0  0.9827297975109929 -0.009985285083248089 0  0.9888934840407251 -0.009993913310034224 0  0.9943667421923366 -0.009998434045983932 0  1.000414962337846 -0.009999991502249178 0  1.00616395254491 -0.009998125110441144 0  1.011844857354635 -0.009993077234903055 0  1.017933801412069 -0.009984132829796667 0  1.023390946643176 -0.00997301205183276 0  1.029544679732296 -0.009956955598792184 0  1.035089558108845 -0.009939300412459717 0  1.041010936359372 -0.009917116481575694 0  1.04691554237944 -0.00989157814857561 0  1.052471258615448 -0.009864440751261633 0  1.05862104751389 -0.009830897850136421 0  1.064075481579663 -0.009798076706746352 0  1.070173358231585 -0.009757978136698224 0  1.075837941143087 -0.00971752009646258 0  1.081604377355612 -0.009673173917302162 0  1.087640686528322 -0.009623351755525641 0  1.093119387704205 -0.009575135453199036 0  1.099284093826516 -0.009517491101966447 0  1.104783734376909 -0.009463052176492596 0  1.110779897618174 -0.009400480030121557 0  1.116599992234411 -0.00933655469875222 0  1.122217899723542 -0.009271889359757672 0  1.128339818747432 -0.009198135031144493 0  1.133789446190431 -0.00912961705214143 0  1.139923317158062 -0.009049295973540348 0  1.145515844317945 -0.008973134373133167 0  1.151367773813766 -0.008890475161473248 0  1.157336906671575 -0.008803064948780913 0  1.16285160438384 -0.008719557366803981 0  1.16901331600552 -0.008623157866544266 0  1.174481522907442 -0.00853490108265173 0  1.180539122189597 -0.008434191931863186 0  1.186271617394136 -0.008336073959344166 0  1.191966996821913 -0.008235914041393521 0  1.198046448076202 -0.008126091334838595 0  1.203505695906331 -0.008024945109277802 0  1.209661806077474 -0.007908057515838151 0  1.21519584913737 -0.007800455577732041 0  1.221132109188887 -0.00768241304184519 0  1.227019087412133 -0.007562711583992629 0  1.232585135446325 -0.007447155722966398 0  1.238729389023077 -0.007316953404904543 0  1.244180486899644 -0.007199156086382225 0  1.250286093435722 -0.007064709646262071 0  1.255932842016573 -0.006938052500145445 0  1.261716857103797 -0.006806053534187844 0  1.26773845151126 -0.006666245775332091 0  1.273222687278595 -0.006536836953056475 0  1.279386853652711 -0.00638906998029936 0  1.284876650734994 -0.006255450389977176 0  1.290887326898431 -0.00610702037198264 0  1.296685536664392 -0.00596177282270944 0  1.30231949087952 -0.005818744638503708 0  1.308431215520824
[...]
<PointData  Tensors="Total Stress"> 
<DataArray  type="Float64"  Name="Total Stress"  NumberOfComponents="9" format="ascii">1.2237696085826992e+00 -2.1180706133498130e-05 0.0000000000000000e+00 -2.1180706133498151e-05 3.2376389775340630e-02 0.0000000000000000e+00 0.0000000000000000e+00 0.0000000000000000e+00 0.0000000000000000e+00  1.2237696085826992e+00 -2.1180706133498130e-05 0.0000000000000000e+00 -2.1180706133498151e-05 3.2376389775340630e-02 0.0000000000000000e+00 0.0000000000000000e+00 0.0000000000000000e+00 0.0000000000000000e+00  8.2755412536802486e-01 2.6901074037381063e-05 0.0000000000000000e+00 2.6901074037381063e-05 -3.9335777280391504e-03 0.0000000000000000e+00 0.0000000000000000e+00 0.0000000000000000e+00 0.0000000000000000e+00  8.2755412536802486e-01 2.6901074037381063e-05 0.0000000000000000e+00 2.6901074037381063e-05 -3.9335777280391504e-03 0.0000000000000000e+00 0.0000000000000000e+00 0.0000000000000000e+00 0.0000000000000000e+00  1.2237429837548541e+00 -1.7919538564255301e-03 0.0000000000000000e+00 -1.7919538564255301e-03 3.2260706735470393e-02 0.0000000000000000e+00 0.0000000000000000e+00 0.0000000000000000e+00 0.0000000000000000e+00  1.2236230030422028e+00 -3.2160544600082579e-03 0.0000000000000000e+00 -3.2160544600082579e-03 3.2243430825398441e-02 0.0000000000000000e+00 0.0000000000000000e+00 0.0000000000000000e+00 0.0000000000000000e+00  1.2234287183620345e+00 -4.7078772241079024e-03 0.0000000000000000e+00 -4.7078772241079024e-03 3.2251025407934425e-02 0.0000000000000000e+00 0.0000000000000000e+00 0.0000000000000000e+00 0.0000000000000000e+00  1.2231456317318605e+00 -6.1590283240126461e-03 0.0000000000000000e+00 -6.1590283240126461e-03 3.2200440075373045e-02 0.0000000000000000e+00 0.0000000000000000e+00 0.0000000000000000e+00 0.0000000000000000e+00  1.2228419358400233e+00 -7.6337712326937394e-03 0.0000000000000000e+00 -7.6337712326937394e-03 3.2205638469727814e-02 0.0000000000000000e+00 0.0000000000000000e+00 0.0000000000000000e+00 0.0000000000000000e+00  1.2223283567723846e+00 -9.1145389049623014e-03 0.0000000000000000e+00 -9.1145389049623014e-03 3.2010832639337503e-02 0.0000000000000000e+00 0.0000000000000000e+00 0.0000000000000000e+00 0.0000000000000000e+00  1.2218808302563204e+00 -1.0511002950342650e-02 0.0000000000000000e+00 -1.0511002950342650e-02 3.2102606106827788e-02 0.0000000000000000e+00 0.0000000000000000e+00 0.0000000000000000e+00 0.0000000000000000e+00  1.2211788690468539e+00 -1.2021161837312090e-02 0.0000000000000000e+00 -1.2021161837312090e-02 3.2013526490951308e-02 0.0000000000000000e+00 0.0000000000000000e+00 0.0000000000000000e+00 0.0000000000000000e+00  1.2205803527244392e+00 -1.3441668000504569e-02 0.0000000000000000e+00 -1.3441668000504569e-02 3.1928428332253386e-02 0.0000000000000000e+00 0.0000000000000000e+00 0.0000000000000000e+00 0.0000000000000000e+00  1.2198393371849527e+00 -1.4958385274852508e-02 0.0000000000000000e+00 -1.4958385274852508e-02 3.1880627267209201e-02 0.0000000000000000e+00 0.0000000000000000e+00 0.0000000000000000e+00 0.0000000000000000e+00  1.2190143666263762e+00 -1.6333166913388632e-02 0.0000000000000000e+00 -1.6333166913388632e-02 3.1711842935675874e-02 0.0000000000000000e+00 0.0000000000000000e+00 0.0000000000000000e+00 0.0000000000000000e+00  1.2182903738883557e+00 -1.7719806770053356e-02 0.0000000000000000e+00 -1.7719806770053356e-02 3.1773631713037785e-02 0.0000000000000000e+00 0.0000000000000000e+00 0.0000000000000000e+00 0.0000000000000000e+00  1.2172651939394368e+00 -1.9214246927735962e-02 0.0000000000000000e+00 -1.9214246927735962e-02 3.1512844728262046e-02 0.0000000000000000e+00 0.0000000000000000e+00 0.0000000000000000e+00 0.0000000000000000e+00  1.2163672864857269e+00 -2.0604690753381928e-02 0.0000000000000000e+00 -2.0604690753381928e-02 3.1529958135482608e-02 0.0000000000000000e+00 0.0000000000000000e+00 0.0000000000000000e+00 0.0000000000000000e+00  1.2151660964790303e+00 -2.2081181799943461e-02 0.0000000000000000e+00 -2.2081181799943461e-02 3.1373074483566563e-02 0.0000000000000000e+00 0.0000000000000000e+00 0.0000000000000000e+00 0.0000000000000000e+00  1.2140578094046401e+00 -2.3446634652387433e-02 0.0000000000000000e+00 -2.3446634652387433e-02 3.1228300290965034e-02 0.0000000000000000e+00 0.0000000000000000e+00 0.0000000000000000e+00 0.0000000000000000e+00  1.2128036484929738e+00 -2.4890423854783638e-02 0.0000000000000000e+00 -2.4890423854783638e-02 3.1110499499884425e-02 0.0000000000000000e+00 0.0000000000000000e+00 0.0000000000000000e+00 0.0000000000000000e+00  1.2114448026196769e+00 -2.6268269794760702e-02 0.0000000000000000e+00 -2.6268269794760702e-02 3.0937268053818221e-02 0.0000000000000000e+00 0.0000000000000000e+00 0.0000000000000000e+00 0.0000000000000000e+00  1.2101106760200648e+00 -2.7615716023264930e-02 0.0000000000000000e+00 -2.7615716023264930e-02 3.0799043877404838e-02 0.0000000000000000e+00 0.0000000000000000e+00 0.0000000000000000e+00 0.0000000000000000e+00  1.2085448372999950e+00 -2.9047795381580414e-02 0.0000000000000000e+00 -2.9047795381580414e-02 3.0602289884159473e-02 0.0000000000000000e+00 0.0000000000000000e+00 0.0000000000000000e+00 0.0000000000000000e+00  1.2071230322226199e+00 -3.0324463363532127e-02 0.0000000000000000e+00 -3.0324463363532131e-02 3.0420630941033647e-02 0.0000000000000000e+00 0.0000000000000000e+00 0.0000000000000000e+00 0.0000000000000000e+00  1.2055110484977589e+00 -3.1687547110585551e-02 0.0000000000000000e+00 -3.1687547110585551e-02 3.0264382237629579e-02 0.0000000000000000e+00 0.0000000000000000e+00 0.0000000000000000e+00 0.0000000000000000e+00  1.2038874524274668e+00 -3.2985909045428551e-02 0.0000000000000000e+00 -3.2985909045428544e-02 3.0066448085249279e-02 0.0000000000000000e+00 0.0000000000000000e+00 0.0000000000000000e+00 0.0000000000000000e+00  1.2021760636697432e+00 -3.4229226073861495e-02 0.0000000000000000e+00 -3.4229226073861502e-02 2.9906483337906280e-02 0.0000000000000000e+00 0.0000000000000000e+00 0.0000000000000000e+00 0.0000000000000000e+00  1.2002297563259312e+00 -3.5607290794214361e-02 0.0000000000000000e+00 -3.5607290794214368e-02 2.9656215584431052e-02 0.0000000000000000e+00 0.0000000000000000e+00 0.0000000000000000e+00 0.0000000000000000e+00  1.1985663865884726e+00 -3.6818263497317469e-02 0.0000000000000000e+00 -3.6818263497317469e-02 2.9547713938960291e-02 0.0000000000000000e+00 0.0000000000000000e+00 0.0000000000000000e+00 0.0000000000000000e+00  1.1965844280653635e+00 -3.8120245385374958e-02 0.0000000000000000e+00 -3.8120245385374958e-02 2.9365408352229005e-02 0.0000000000000000e+00 0.0000000000000000e+00 0.0000000000000000e+00 0.0000000000000000e+00  1.1947796805572848e+00 -3.9327859902568894e-02 0.0000000000000000e+00 -3.9327859902568894e-02 2.9219433348615743e-02 0.0000000000000000e+00 0.0000000000000000e+00 0.0000000000000000e+00 0.0000000000000000e+00  1.1926456349659100e+00 -4.0678260173268005e-02 0.0000000000000000e+00 -4.0678260173268005e-02 2.9039944711351798e-02 0.0000000000000000e+00 0.0000000000000000e+00 0.0000000000000000e+00 0.0000000000000000e+00  1.1904840869972271e+00 -4.1949317433220647e-02 0.0000000000000000e+00 -4.1949317433220661e-02 2.8801232612573665e-02 0.0000000000000000e+00 0.0000000000000000e+00 0.0000000000000000e+00 0.0000000000000000e+00  1.1884437679369464e+00 -4.3184146701942545e-02 0.0000000000000000e+00 -4.3184146701942538e-02 2.8656847649937194e-02 0.0000000000000000e+00 0.0000000000000000e+00 0.0000000000000000e+00 0.0000000000000000e+00  1.1860819467921222e+00 -4.4438206909855976e-02 0.0000000000000000e+00 -4.4438206909855997e-02 2.8384041688710830e-02 0.0000000000000000e+00 0.0000000000000000e+00 0.0000000000000000e+00 0.0000000000000000e+00  1.1838293529566639e+00 -4.5608556784428579e-02 0.0000000000000000e+00 -4.5608556784428579e-02 2.8078291413880598e-02 0.0000000000000000e+00 0.0000000000000000e+00 0.0000000000000000e+00 0.0000000000000000e+00  1.1814093114592858e+00 -4.6841987724761239e-02 0.0000000000000000e+00 -4.6841987724761260e-02 2.7862556432347505e-02 0.0000000000000000e+00 0.0000000000000000e+00 0.0000000000000000e+00 0.0000000000000000e+00  1.1789818141512471e+00 -4.7965352823066347e-02 0.0000000000000000e+00 -4.7965352823066347e-02 2.7523393605882226e-02 0.0000000000000000e+00 0.0000000000000000e+00 0.0000000000000000e+00 0.0000000000000000e+00  1.1765529249485847e+00 -4.9141683192120741e-02 0.0000000000000000e+00 -4.9141683192120734e-02 2.7332490245061580e-02 0.0000000000000000e+00 0.0000000000000000e+00 0.0000000000000000e+00 0.0000000000000000e+00  1.1738571693512818e+00 -5.0280206252960119e-02 0.0000000000000000e+00 -5.0280206252960119e-02 2.6988091993157149e-02 0.0000000000000000e+00 0.0000000000000000e+00 0.0000000000000000e+00 0.0000000000000000e+00  1.1714527521456795e+00 -5.1339742829869972e-02 0.0000000000000000e+00 -5.1339742829869972e-02 2.6808011243848823e-02 0.0000000000000000e+00 0.0000000000000000e+00 0.0000000000000000e+00 0.0000000000000000e+00  1.1686082361164194e+00 -5.2457790828866084e-02 0.0000000000000000e+00 -5.2457790828866084e-02 2.6494416580921998e-02 0.0000000000000000e+00 0.0000000000000000e+00 0.0000000000000000e+00 0.0000000000000000e+00  1.1659918090500463e+00 -5.3483079323419599e-02 0.0000000000000000e+00 -5.3483079323419599e-02 2.6123559768452695e-02 0.0000000000000000e+00 0.0000000000000000e+00 0.0000000000000000e+00 0.0000000000000000e+00  1.1631847270660456e+00 -5.4578488150176768e-02 0.0000000000000000e+00 -5.4578488150176768e-02 2.5932565593705867e-02 0.0000000000000000e+00 0.0000000000000000e+00 0.0000000000000000e+00 0.0000000000000000e+00  1.1603211832930440e+00 -5.5630736472796039e-02 0.0000000000000000e+00 -5.5630736472796039e-02 2.5539177374358870e-02 0.0000000000000000e+00 0.0000000000000000e+00 0.0000000000000000e+00 0.0000000000000000e+00  1.1575733029214725e+00 -5.6624817635190755e-02 0.0000000000000000e+00 -5.6624817635190755e-02 2.5342782468699407e-02 0.0000000000000000e+00 0.0000000000000000e+00 0.0000000000000000e+00 0.0000000000000000e+00  1.1544586329501818e+00 -5.7675699334613036e-02 0.0000000000000000e+00 -5.7675699334613036e-02 2.4932515745506947e-02 0.0000000000000000e+00 0.0000000000000000e+00 0.0000000000000000e+00 0.0000000000000000e+00  1.1517018978710900e+00 -5.8611575588367923e-02 0.0000000000000000e+00 -5.8611575588367923e-02 2.4715206049791792e-02 0.0000000000000000e+00 0.0000000000000000e+00 0.0000000000000000e+00 0.0000000000000000e+00  1.1484804999169294e+00 -5.9639739618373419e-02 0.0000000000000000e+00 -5.9639739618373419e-02 2.4351543360411017e-02 0.0000000000000000e+00 0.0000000000000000e+00 0.0000000000000000e+00 0.0000000000000000e+00  1.1455018461349931e+00 -6.0599773468752775e-02 0.0000000000000000e+00 -6.0599773468752775e-02 2.3976008589480773e-02 0.0000000000000000e+00 0.0000000000000000e+00 0.0000000000000000e+00 0.0000000000000000e+00  1.1422514499889800e+00 -6.1527892884242499e-02 0.0000000000000000e+00 -6.1527892884242499e-02 2.3584564051256664e-02 0.0000000000000000e+00 0.0000000000000000e+00 0.0000000000000000e+00 0.0000000000000000e+00  1.1389704814506416e+00 -6.2413254411404946e-02 0.0000000000000000e+00 -6.2413254411404946e-02 2.3144965608653895e-02 0.0000000000000000e+00 0.0000000000000000e+00 0.0000000000000000e+00 0.0000000000000000e+00  1.1359671913314440e+00 -6.3267924060821532e-02 0.0000000000000000e+00 -6.3267924060821532e-02 2.2905647915366936e-02 0.0000000000000000e+00 0.0000000000000000e+00 0.0000000000000000e+00 0.0000000000000000e+00  1.1324625057691182e+00 -6.4214138762512155e-02 0.0000000000000000e+00 -6.4214138762512155e-02 2.2482409393939095e-02 0.0000000000000000e+00 0.0000000000000000e+00 0.0000000000000000e+00 0.0000000000000000e+00  1.1292787419620893e+00 -6.5015573568185853e-02 0.0000000000000000e+00 -6.5015573568185853e-02 2.2113138797813504e-02 0.0000000000000000e+00 0.0000000000000000e+00 0.0000000000000000e+00 0.0000000000000000e+00  1.1257615461844488e+00 -6.5917393437368119e-02 0.0000000000000000e+00 -6.5917393437368119e-02 2.1714096522173446e-02 0.0000000000000000e+00 0.0000000000000000e+00 0.0000000000000000e+00 0.0000000000000000e+00  1.1224707298677947e+00 -6.6680438179395340e-02 0.0000000000000000e+00 -6.6680438179395340e-02 2.1283448811335887e-02 0.0000000000000000e+00 0.0000000000000000e+00 0.0000000000000000e+00 0.0000000000000000e+00  1.1190364909658279e+00 -6.7429400074722728e-02 0.0000000000000000e+00 -6.7429400074722728e-02 2.0896556623647835e-02 0.0000000000000000e+00 0.0000000000000000e+00 0.0000000000000000e+00 0.0000000000000000e+00  1.1152783849271481e+00 -6.8155133909254095e-02 0.0000000000000000e+00 -6.8155133909254095e-02 2.0480332536677439e-02 0.0000000000000000e+00 0.0000000000000000e+00 0.0000000000000000e+00 0.0000000000000000e+00  1.1120100249241747e+00 -6.8896387974077392e-02 0.0000000000000000e+00 -6.8896387974077392e-02 2.0122506547427449e-02 0.0000000000000000e+00 0.0000000000000000e+00 0.0000000000000000e+00 0.0000000000000000e+00  1.1081516944932743e+00 -6.9676329947560706e-02 0.0000000000000000e+00 -6.9676329947560692e-02 1.9629790593229453e-02 0.0000000000000000e+00 0.0000000000000000e+00 0.0000000000000000e+00 0.0000000000000000e+00  1.1046779418341459e+00 -7.0313974209894409e-02 0.0000000000000000e+00 -7.0313974209894423e-02 1.9169295111421871e-02 0.0000000000000000e+00 0.0000000000000000e+00 0.0000000000000000e+00 0.0000000000000000e+00  1.1008909024243028e+00 -7.1027584473416006e-02 0.0000000000000000e+00 -7.1027584473416006e-02 1.8748442412953436e-02 0.0000000000000000e+00 0.0000000000000000e+00 0.0000000000000000e+00 0.0000000000000000e+00  1.0971465820366990e+00 -7.1668500319481687e-02 0.0000000000000000e+00 -7.1668500319481687e-02 1.8209346446297958e-02 0.0000000000000000e+00 0.0000000000000000e+00 0.0000000000000000e+00 0.0000000000000000e+00  1.0934886012519829e+00 -7.2270956418945625e-02 0.0000000000000000e+00 -7.2270956418945625e-02 1.7778898388898588e-02 0.0000000000000000e+00 0.0000000000000000e+00 0.0000000000000000e+00 0.0000000000000000e+00  1.0895187562824540e+00 -7.2844746622376361e-02 0.0000000000000000e+00 -7.2844746622376361e-02 1.7273890685558541e-02 0.0000000000000000e+00 0.0000000000000000e+00 0.0000000000000000e+00 0.0000000000000000e+00  1.0859411552450577e+00 -7.3398326997839464e-02 0.0000000000000000e+00 -7.3398326997839464e-02 1.6798835608640820e-02 0.0000000000000000e+00 0.0000000000000000e+00 0.0000000000000000e+00 0.0000000000000000e+00  1.0818268498492347e+00 -7.3941209817076858e-02 0.0000000000000000e+00 -7.3941209817076858e-02 1.6272231280573497e-02 0.0000000000000000e+00 0.0000000000000000e+00 0.0000000000000000e+00 0.0000000000000000e+00  1.0780953517210374e+00 -7.4408668663209027e-02 0.0000000000000000e+00 -7.4408668663209027e-02 1.5771479110809200e-02 0.0000000000000000e+00 0.0000000000000000e+00 0.0000000000000000e+00 0.0000000000000000e+00  1.0741262375632601e+00 -7.4916154857511172e-02 0.0000000000000000e+00 -7.4916154857511172e-02 1.5261276778910910e-02 0.0000000000000000e+00 0.0000000000000000e+00 0.0000000000000000e+00 0.0000000000000000e+00  1.0701186775769214e+00 -7.5352386769558563e-02 0.0000000000000000e+00 -7.5352386769558563e-02 1.4742221562327979e-02 0.0000000000000000e+00 0.0000000000000000e+00 0.0000000000000000e+00 0.0000000000000000e+00  1.0663695886400617e+00 -7.5765967299719350e-02 0.0000000000000000e+00 -7.5765967299719350e-02 1.4283713631731003e-02 0.0000000000000000e+00 0.0000000000000000e+00 0.0000000000000000e+00 0.0000000000000000e+00  1.0621775770271926e+00 -7.6222554674298199e-02 0.0000000000000000e+00 -7.6222554674298199e-02 1.3748344179963099e-02 0.0000000000000000e+00 0.0000000000000000e+00 0.0000000000000000e+00 0.0000000000000000e+00  1.0583840261828785e+00 -7.6594311083720931e-02 0.0000000000000000e+00 -7.6594311083720931e-02 1.3239578155586981e-02 0.0000000000000000e+00 0.0000000000000000e+00 0.0000000000000000e+00 0.0000000000000000e+00  1.0541594150586113e+00 -7.6985882852256299e-02 0.0000000000000000e+00 -7.6985882852256299e-02 1.2656795491398767e-02 0.0000000000000000e+00 0.0000000000000000e+00 0.0000000000000000e+00 0.0000000000000000e+00  1.0501677503616402e+00 -7.7350657034456677e-02 0.0000000000000000e+00 -7.7350657034456677e-02 1.2108270130566780e-02 0.0000000000000000e+00 0.0000000000000000e+00 0.0000000000000000e+00 0.0000000000000000e+00  1.0460899696914920e+00 -7.7622928384992879e-02 0.0000000000000000e+00 -7.7622928384992879e-02 1.1518656053569722e-02 0.0000000000000000e+00 0.0000000000000000e+00 0.0000000000000000e+00 0.0000000000000000e+00  1.0418547928858939e+00 -7.7880219889867763e-02 0.0000000000000000e+00 -7.7880219889867763e-02 1.0931678287046314e-02 0.0000000000000000e+00 0.0000000000000000e+00 0.0000000000000000e+00 0.0000000000000000e+00  1.0380219616534310e+00 -7.8138963764527600e-02 0.0000000000000000e+00 -7.8138963764527600e-02 1.0449399107637812e-02 0.0000000000000000e+00 0.0000000000000000e+00 0.0000000000000000e+00 0.0000000000000000e+00  1.0336007974535308e+00 -7.8422549621878820e-02 0.0000000000000000e+00 -7.8422549621878820e-02 9.8308649501937049e-03 0.0000000000000000e+00 0.0000000000000000e+00 0.0000000000000000e+00 0.0000000000000000e+00  1.0296694462146716e+00 -7.8655543684249637e-02 0.0000000000000000e+00 -7.8655543684249637e-02 9.2930149821960628e-03 0.0000000000000000e+00 0.0000000000000000e+00 0.0000000000000000e+00 0.0000000000000000e+00  1.0253267555276064e+00 -7.8788928549861623e-02 0.0000000000000000e+00 -7.8788928549861623e-02 8.6860168364403766e-03 0.0000000000000000e+00 0.0000000000000000e+00 0.0000000000000000e+00 0.0000000000000000e+00  1.0211761787140723e+00 -7.8966557117873287e-02 0.0000000000000000e+00 -7.8966557117873287e-02 8.1078200346700584e-03 0.0000000000000000e+00 0.0000000000000000e+00 0.0000000000000000e+00 0.0000000000000000e+00  1.0170691506382359e+00 -7.9117515927240381e-02 0.0000000000000000e+00 -7.9117515927240381e-02 7.4783946973293412e-03 0.0000000000000000e+00 0.0000000000000000e+00 0.0000000000000000e+00 0.0000000000000000e+00  1.0126126469804113e+00 -7.9273746824754424e-02 0.0000000000000000e+00 -7.9273746824754424e-02 6.8098456232269147e-03 0.0000000000000000e+00 0.0000000000000000e+00 0.0000000000000000e+00 0.0000000000000000e+00  1.0086860049659647e+00 -7.9328757274174364e-02 0.0000000000000000e+00 -7.9328757274174364e-02 6.2353140955480170e-03 0.0000000000000000e+00 0.0000000000000000e+00 0.0000000000000000e+00 0.0000000000000000e+00  1.0042425639352806e+00 -7.9426095859187765e-02 0.0000000000000000e+00 -7.9426095859187806e-02 5.5656570029041161e-03 0.0000000000000000e+00 0.0000000000000000e+00 0.0000000000000000e+00 0.0000000000000000e+00  1.0001913874121500e+00 -7.9391746365612498e-02 0.0000000000000000e+00 -7.9391746365612498e-02 4.9556109987307674e-03 0.0000000000000000e+00 0.0000000000000000e+00 0.0000000000000000e+00 0.0000000000000000e+00  9.9594157658910076e-01 -7.9321644376546319e-02 0.0000000000000000e+00 -7.9321644376546332e-02 4.3078236867179496e-03 0.0000000000000000e+00 0.0000000000000000e+00 0.0000000000000000e+00 0.0000000000000000e+00  9.9153873910882018e-01 -7.9324005931767916e-02 0.0000000000000000e+00 -7.9324005931767916e-02 3.6195702365975579e-03 0.0000000000000000e+00 0.0000000000000000e+00 0.0000000000000000e+00 0.0000000000000000e+00  9.8756712983190242e-01 -7.9201273229582217e-02 0.0000000000000000e+00 -7.9201273229582217e-02 3.0202682604721885e-03 0.0000000000000000e+00 0.0000000000000000e+00 0.0000000000000000e+00 0.0000000000000000e+00  9.8309170108482369e-01 -7.9074784358875924e-02 0.0000000000000000e+00 -7.9074784358875924e-02 2.2392338528614726e-03 0.0000000000000000e+00 0.0000000000000000e+00 0.0000000000000000e+00 0.0000000000000000e+00  9.7905548135809684e-01 -7.9002354160134694e-02 0.0000000000000000e+00 -7.9002354160134694e-02 1.6579200913149673e-03 0.0000000000000000e+00 0.0000000000000000e+00 0.0000000000000000e+00 0.0000000000000000e+00  9.7465633522781381e-01 -7.8801275634750478e-02 0.0000000000000000e+00 -7.8801275634750478e-02 9.7829478472156550e-04 0.0000000000000000e+0