<?xml version="1.0"?>
<VTKFile type="UnstructuredGrid"  version="0.1"  >
<UnstructuredGrid>
<Piece  NumberOfPoints="4278" NumberOfCells="6772">
<Points>
<DataArray  type="Float64"  NumberOfComponents="3"  format="ascii">0 0.01 0  10 0.01 0  0 1.0209841656229 0  10 1.0209841656229 0  0.007129524987038337 0.009997491741717768 0  0.01258064459049757 0.00999219056738478 0  0.01872173241756402 0.009982708334120727 0  0.02429919625640796 0.009970876572043954 0  0.03017238705920286 0.009955108531615313 0  0.03612352734296466 0.0099356743715591 0  0.04164979236492252 0.009914517792428084 0  0.04780928449023854 0.009887415768096998 0  0.05327287671237849 0.009860276931383746 0  0.0593436395885565 0.009826715421083503 0  0.06505608699933001 0.009791870631895848 0  0.07077243060783153 0.009753845329312128 0  0.07684085351634186 0.009710036052663748 0  0.08230528612367993 0.009667566921662384 0  0.08846525752759338 0.009616276826848907 0  0.09398926586603956 0.0095672187064786 0  0.09994377871281757 0.009511110804477986 0  0.10581288515308 0.009452550633355501 0  0.1113930001121819 0.009393893683773193 0  0.1175326299024069 0.009326020378011352 0  0.122983161250664 0.009262856809916281 0  0.1290978349347763 0.009188765415777931 0  0.1347300222736412 0.00911751981665075 0  0.1405327472005438 0.009041131768776852 0  0.1465421455697866 0.008958856277281909 0  0.1520341809431761 0.008880870879718691 0  0.1581991754706344 0.00879018143976357 0  0.1636834803794234 0.008706732874359017 0  0.1697073563005918 0.008612096527554045 0  0.1754901396361989 0.008518345936558386 0  0.1811391035120075 0.008424050210098115 0  0.1872444279222087 0.00831915423323064 0  0.1926961446341008 0.008222899998379215 0  0.198841090009393 0.008111516418624823 0  0.2044064770158165 0.008008028244452866 0  0.2102948627703611 0.007895869216798803 0  0.2162299794791283 0.007780085801116003 0  0.2217647046821167 0.007669675498109103 0  0.2279204403470532 0.007544154739747676 0  0.2333791472114919 0.007430485124751003 0  0.2394590817234977 0.0073013084386626 0  0.245152498789355 0.007177928079207972 0  0.2508861115607116 0.007051356111670669 0  0.2569419868439766 0.006915186417023598 0  0.2624099649457279 0.006790084113692359 0  0.2685711825796066 0.006646722567663751 0  0.274083748205357 0.006516341894728842 0  0.2800541704182985 0.00637292855786236 0  0.2859022845836161 0.006230279166502627 0  0.291495955429921 0.006091868246150131 0  0.2976275706217687 0.005937986548763313 0  0.3030757324287757 0.005799406374294222 0  0.3091980118239236 0.005641654227187252 0  0.3148109405089491 0.005495191514879527 0  0.3206341933715942 0.005341435282378838 0  0.3266248575896781 0.005181393525330103 0  0.3321252080346692 0.005032833254881577 0  0.3382880718234609 0.004864596209960478 0  0.3437628463580178 0.004713611578807419 0  0.3498021006600692 0.004545443593512952 0  0.3555594631656461 0.004383601001460968 0  0.3612291099056053 0.004222822711549606 0  0.3673210805066339 0.004048576418709386 0  0.3727746135437823 0.003891330909934085 0  0.3789246700786391 0.003712634483246944 0  0.3844721023230384 0.00355025746928806 0  0.3903845048135511 0.003376011435332509 0  0.3962935688476314 0.003200699755406988 0  0.4018430601204535 0.00303505085978487 0  0.4079921977692303 0.002850427660455144 0  0.4134449905916002 0.002685819499171436 0  0.4195385366679084 0.002500937932218923 0  0.425204482428441 0.002328206591247292 0  0.4309651825948974 0.00215183074136113 0  0.4370014133195289 0.001966263547608745 0  0.4424769325836848 0.00179732019881714 0  0.4486395183564056 0.001606544730410899 0  0.4541373275735043 0.001435838569361521 0  0.4601308451156257 0.001249254088784412 0  0.4659488863550298 0.001067707976620331 0  0.471564807260988 0.0008921302908496037 0  0.4776843759254726 0.0007004920228137959 0  0.4831317484445766 0.0005296836585198918 0  0.4892643513384632 0.0003372062279158936 0  0.4948528283485032 0.000161696161435303 0  0.5007056813361916 -2.216943068070812e-05 0  0.5066699093509902 -0.000209526046556915 0  0.5121845298566023 -0.0003826949545447442 0  0.5183439831944545 -0.0005759742926309219 0  0.5238088617282698 -0.0007472800272428554 0  0.5298681543527348 -0.0009369594486414562 0  0.5355929349139432 -0.001115856450691032 0  0.5412927239341832 -0.001293613669039852 0  0.5473668732672543 -0.001482588207084091 0  0.5528259073001393 -0.001651967505962102 0  0.5589819336317072 -0.001842386787779294 0  0.5645100189486582 -0.002012797049529044 0  0.5704524332663232 -0.002195301346534757 0  0.5763298911552834 -0.002375058665203144 0  0.5819006708717119 -0.002544689651648297 0  0.5880413281562127 -0.002730768313747055 0  0.5934904284812221 -0.002895042191696308 0  0.5995995320960693 -0.003078202338538874 0  0.605236779888003 -0.003246210954182579 0  0.6110299855290301 -0.003417806240976177 0  0.6170432999212266 -0.00359472323302265 0  0.6225307972792151 -0.00375505261922207 0  0.6286944373476531 -0.003933803567825084 0  0.6341794289295242 -0.004091634709336539 0  0.6401977648984302 -0.004263413669385436 0  0.6459846030577213 -0.004427148756161272 0  0.6516277670629291 -0.004585409549508515 0  0.6577342305863492 -0.004755038487876419 0  0.6631843111407589 -0.004904958327357115 0  0.6693271588517591 -0.005072208653571043 0  0.6748942591145469 -0.005222152905474348 0  0.6807781354428797 -0.005378892074409919 0  0.6867158102497221 -0.005535201343768038 0  0.6922478556369909 -0.005679100421160843 0  0.6984036264198542 -0.005837205328254034 0  0.7038624132928571 -0.005975584427524931 0  0.7099402809449575 -0.006127588021236129 0  0.7156361945945205 -0.006268012368771779 0  0.7213667017809595 -0.006407263887957157 0  0.7274241898103784 -0.006552202568912044 0  0.7328913375361901 -0.006680980644346233 0  0.7390522654079078 -0.006823736587757829 0  0.7445663161830813 -0.006949337256267011 0  0.7505345306161221 -0.007082931996795786 0  0.7563856967966242 -0.007211490056377221 0  0.7619775509571868 -0.007332073958440476 0  0.7681106054434813 -0.007461725199742056 0  0.7735594228940573 -0.007574589702563127 0  0.7796809699364847 -0.007698739982391196 0  0.7852974086111042 -0.007810142587226769 0  0.7911178568436495 -0.007923025648348906 0  0.797112403703894 -0.008036515862006795 0  0.8026119630288198 -0.008138129173272899 0  0.8087760180262171 -0.008249131188213875 0  0.814253500572072 -0.008345174877796967 0  0.8202905515677629 -0.008448166667805387 0  0.8260544286221699 -0.008543663134562481 0  0.831720415905675 -0.008634807324656511 0  0.8378167080097026 -0.008729817306667463 0  0.8432709709919499 -0.008812108559864256 0  0.8494209576248264 -0.008901791974276371 0  0.8549745826348545 -0.008979924427376591 0  0.8608814329347291 -0.009060026011188804 0  0.8667998142885592 -0.009137155111096256 0  0.8723460990452367 -0.009206568509458774 0  0.8784989383774584 -0.009280301817794542 0  0.8839552890388401 -0.009342788637451834 0  0.8900456692707091 -0.009409293585850673 0  0.8957233874467343 -0.009468190513990782 0  0.9014754209053449 -0.009524786393944277 0  0.9075213579987256 -0.009580921173179099 0  0.9129954731058688 -0.009628765913494807 0  0.9191593188847452 -0.009679229788646495 0  0.9246655330424429 -0.009721240864333262 0  0.9306503084472221 -0.009763603884533442 0  0.9364847200361547 -0.009801580348484516 0  0.9420914259676206 -0.009834972127394636 0  0.948219177636862 -0.009867976960504428 0  0.9536688877131657 -0.009894257783109666 0  0.9597979104438458 -0.009920349306153329 0  0.9654020314719589 -0.009940987600901847 0  0.9712398170272581 -0.009959209624459757 0  0.9772219132298864 -0.009974407121723252 0  0.9827297975109929 -0.009985285083248089 0  0.9888934840407251 -0.009993913310034224 0  0.9943667421923366 -0.009998434045983932 0  1.000414962337846 -0.009999991502249178 0  1.00616395254491 -0.009998125110441144 0  1.011844857354635 -0.009993077234903055 0  1.017933801412069 -0.009984132829796667 0  1.023390946643176 -0.00997301205183276 0  1.029544679732296 -0.009956955598792184 0  1.035089558108845 -0.009939300412459717 0  1.041010936359372 -0.009917116481575694 0  1.04691554237944 -0.00989157814857561 0  1.052471258615448 -0.009864440751261633 0  1.05862104751389 -0.009830897850136421 0  1.064075481579663 -0.009798076706746352 0  1.070173358231585 -0.009757978136698224 0  1.075837941143087 -0.00971752009646258 0  1.081604377355612 -0.009673173917302162 0  1.087640686528322 -0.009623351755525641 0  1.093119387704205 -0.009575135453199036 0  1.099284093826516 -0.009517491101966447 0  1.104783734376909 -0.009463052176492596 0  1.110779897618174 -0.009400480030121557 0  1.116599992234411 -0.00933655469875222 0  1.122217899723542 -0.009271889359757672 0  1.128339818747432 -0.009198135031144493 0  1.133789446190431 -0.00912961705214143 0  1.139923317158062 -0.009049295973540348 0  1.145515844317945 -0.008973134373133167 0  1.151367773813766 -0.008890475161473248 0  1.157336906671575 -0.008803064948780913 0  1.16285160438384 -0.008719557366803981 0  1.16901331600552 -0.008623157866544266 0  1.174481522907442 -0.00853490108265173 0  1.180539122189597 -0.008434191931863186 0  1.186271617394136 -0.008336073959344166 0  1.191966996821913 -0.008235914041393521 0  1.198046448076202 -0.008126091334838595 0  1.203505695906331 -0.008024945109277802 0  1.209661806077474 -0.007908057515838151 0  1.21519584913737 -0.007800455577732041 0  1.221132109188887 -0.00768241304184519 0  1.227019087412133 -0.007562711583992629 0  1.232585135446325 -0.007447155722966398 0  1.238729389023077 -0.007316953404904543 0  1.244180486899644 -0.007199156086382225 0  1.250286093435722 -0.007064709646262071 0  1.255932842016573 -0.006938052500145445 0  1.261716857103797 -0.006806053534187844 0  1.26773845151126 -0.006666245775332091 0  1.273222687278595 -0.006536836953056475 0  1.279386853652711 -0.00638906998029936 0  1.284876650734994 -0.006255450389977176 0  1.290887326898431 -0.00610702037198264 0  1.296685536664392 -0.00596177282270944 0  1.30231949087952 -0.005818744638503708 0  1.308431215520824 -0.
[...]
<PointData  Tensors="Total Stress"> 
<DataArray  type="Float64"  Name="Total Stress"  NumberOfComponents="9" format="ascii">1.2226386646248797e+00 -2.6765938314634415e-05 0.0000000000000000e+00 -2.6765938314634560e-05 3.1244226718301137e-02 0.0000000000000000e+00 0.0000000000000000e+00 0.0000000000000000e+00 0.0000000000000000e+00  1.2226386646248797e+00 -2.6765938314634415e-05 0.0000000000000000e+00 -2.6765938314634560e-05 3.1244226718301137e-02 0.0000000000000000e+00 0.0000000000000000e+00 0.0000000000000000e+00 0.0000000000000000e+00  8.1980469857130134e-01 2.5466301386325168e-05 0.0000000000000000e+00 2.5466301386325168e-05 -4.0249826192126463e-03 0.0000000000000000e+00 0.0000000000000000e+00 0.0000000000000000e+00 0.0000000000000000e+00  8.1980469857130134e-01 2.5466301386325168e-05 0.0000000000000000e+00 2.5466301386325168e-05 -4.0249826192126463e-03 0.0000000000000000e+00 0.0000000000000000e+00 0.0000000000000000e+00 0.0000000000000000e+00  1.2226111236174861e+00 -1.7794015104239636e-03 0.0000000000000000e+00 -1.7794015104239634e-03 3.1128748866250850e-02 0.0000000000000000e+00 0.0000000000000000e+00 0.0000000000000000e+00 0.0000000000000000e+00  1.2224918845202184e+00 -3.1897184507971355e-03 0.0000000000000000e+00 -3.1897184507971355e-03 3.1112093826451602e-02 0.0000000000000000e+00 0.0000000000000000e+00 0.0000000000000000e+00 0.0000000000000000e+00  1.2222985678752718e+00 -4.6660320111454913e-03 0.0000000000000000e+00 -4.6660320111454913e-03 3.1120399450144571e-02 0.0000000000000000e+00 0.0000000000000000e+00 0.0000000000000000e+00 0.0000000000000000e+00  1.2220168498721364e+00 -6.1029777955477959e-03 0.0000000000000000e+00 -6.1029777955477959e-03 3.1070917749818149e-02 0.0000000000000000e+00 0.0000000000000000e+00 0.0000000000000000e+00 0.0000000000000000e+00  1.2217150974690565e+00 -7.5628764063740920e-03 0.0000000000000000e+00 -7.5628764063740920e-03 3.1077892371673001e-02 0.0000000000000000e+00 0.0000000000000000e+00 0.0000000000000000e+00 0.0000000000000000e+00  1.2212037640796698e+00 -9.0286628792845512e-03 0.0000000000000000e+00 -9.0286628792845512e-03 3.0885310613156552e-02 0.0000000000000000e+00 0.0000000000000000e+00 0.0000000000000000e+00 0.0000000000000000e+00  1.2207591774363173e+00 -1.0411459220613938e-02 0.0000000000000000e+00 -1.0411459220613938e-02 3.0979169312938981e-02 0.0000000000000000e+00 0.0000000000000000e+00 0.0000000000000000e+00 0.0000000000000000e+00  1.2200611692299943e+00 -1.1906292550537295e-02 0.0000000000000000e+00 -1.1906292550537295e-02 3.0893100775703231e-02 0.0000000000000000e+00 0.0000000000000000e+00 0.0000000000000000e+00 0.0000000000000000e+00  1.2194659183589547e+00 -1.3312883827852111e-02 0.0000000000000000e+00 -1.3312883827852111e-02 3.0810694461300345e-02 0.0000000000000000e+00 0.0000000000000000e+00 0.0000000000000000e+00 0.0000000000000000e+00  1.2187294150535195e+00 -1.4814620705876105e-02 0.0000000000000000e+00 -1.4814620705876105e-02 3.0766884895537461e-02 0.0000000000000000e+00 0.0000000000000000e+00 0.0000000000000000e+00 0.0000000000000000e+00  1.2179085743383626e+00 -1.6175468853141979e-02 0.0000000000000000e+00 -1.6175468853141976e-02 3.0601735153649487e-02 0.0000000000000000e+00 0.0000000000000000e+00 0.0000000000000000e+00 0.0000000000000000e+00  1.2171895930060874e+00 -1.7548159750937879e-02 0.0000000000000000e+00 -1.7548159750937885e-02 3.0667928064226215e-02 0.0000000000000000e+00 0.0000000000000000e+00 0.0000000000000000e+00 0.0000000000000000e+00  1.2161695173185498e+00 -1.9027633294506047e-02 0.0000000000000000e+00 -1.9027633294506047e-02 3.0411785968930002e-02 0.0000000000000000e+00 0.0000000000000000e+00 0.0000000000000000e+00 0.0000000000000000e+00  1.2152775062867076e+00 -2.0404721678112157e-02 0.0000000000000000e+00 -2.0404721678112157e-02 3.0433628656310937e-02 0.0000000000000000e+00 0.0000000000000000e+00 0.0000000000000000e+00 0.0000000000000000e+00  1.2140832075395673e+00 -2.1866399195372845e-02 0.0000000000000000e+00 -2.1866399195372841e-02 3.0282603065670627e-02 0.0000000000000000e+00 0.0000000000000000e+00 0.0000000000000000e+00 0.0000000000000000e+00  1.2129809784281644e+00 -2.3218631685663949e-02 0.0000000000000000e+00 -2.3218631685663949e-02 3.0143105552445617e-02 0.0000000000000000e+00 0.0000000000000000e+00 0.0000000000000000e+00 0.0000000000000000e+00  1.2117341606544789e+00 -2.4648212318821940e-02 0.0000000000000000e+00 -2.4648212318821937e-02 3.0031523913657012e-02 0.0000000000000000e+00 0.0000000000000000e+00 0.0000000000000000e+00 0.0000000000000000e+00  1.2103829755865552e+00 -2.6012261805199419e-02 0.0000000000000000e+00 -2.6012261805199426e-02 2.9864793279035410e-02 0.0000000000000000e+00 0.0000000000000000e+00 0.0000000000000000e+00 0.0000000000000000e+00  1.2090564444548171e+00 -2.7346570846290139e-02 0.0000000000000000e+00 -2.7346570846290136e-02 2.9733088335838233e-02 0.0000000000000000e+00 0.0000000000000000e+00 0.0000000000000000e+00 0.0000000000000000e+00  1.2074995782181264e+00 -2.8764359783340486e-02 0.0000000000000000e+00 -2.8764359783340496e-02 2.9544000476909919e-02 0.0000000000000000e+00 0.0000000000000000e+00 0.0000000000000000e+00 0.0000000000000000e+00  1.2060859623044988e+00 -3.0028700980302032e-02 0.0000000000000000e+00 -3.0028700980302032e-02 2.9369576819246061e-02 0.0000000000000000e+00 0.0000000000000000e+00 0.0000000000000000e+00 0.0000000000000000e+00  1.2044832012074440e+00 -3.1377944000367988e-02 0.0000000000000000e+00 -3.1377944000367988e-02 2.9221552470148390e-02 0.0000000000000000e+00 0.0000000000000000e+00 0.0000000000000000e+00 0.0000000000000000e+00  1.2028688561678087e+00 -3.2663758092776551e-02 0.0000000000000000e+00 -3.2663758092776544e-02 2.9031622136208933e-02 0.0000000000000000e+00 0.0000000000000000e+00 0.0000000000000000e+00 0.0000000000000000e+00  1.2011673998165837e+00 -3.3894420990814883e-02 0.0000000000000000e+00 -3.3894420990814883e-02 2.8880257731796435e-02 0.0000000000000000e+00 0.0000000000000000e+00 0.0000000000000000e+00 0.0000000000000000e+00  1.1992316782656787e+00 -3.5259091706691413e-02 0.0000000000000000e+00 -3.5259091706691413e-02 2.8638673348171325e-02 0.0000000000000000e+00 0.0000000000000000e+00 0.0000000000000000e+00 0.0000000000000000e+00  1.1975780987265985e+00 -3.6458429801725707e-02 0.0000000000000000e+00 -3.6458429801725707e-02 2.8538799319510259e-02 0.0000000000000000e+00 0.0000000000000000e+00 0.0000000000000000e+00 0.0000000000000000e+00  1.1956070887515242e+00 -3.7747516796799184e-02 0.0000000000000000e+00 -3.7747516796799184e-02 2.8366039743492322e-02 0.0000000000000000e+00 0.0000000000000000e+00 0.0000000000000000e+00 0.0000000000000000e+00  1.1938135250922195e+00 -3.8943079238987544e-02 0.0000000000000000e+00 -3.8943079238987550e-02 2.8228547898052594e-02 0.0000000000000000e+00 0.0000000000000000e+00 0.0000000000000000e+00 0.0000000000000000e+00  1.1916910372614993e+00 -4.0280137080423974e-02 0.0000000000000000e+00 -4.0280137080423981e-02 2.8058641041139195e-02 0.0000000000000000e+00 0.0000000000000000e+00 0.0000000000000000e+00 0.0000000000000000e+00  1.1895400057586545e+00 -4.1538869346002066e-02 0.0000000000000000e+00 -4.1538869346002059e-02 2.7830801297445838e-02 0.0000000000000000e+00 0.0000000000000000e+00 0.0000000000000000e+00 0.0000000000000000e+00  1.1875134421148088e+00 -4.2762444394770852e-02 0.0000000000000000e+00 -4.2762444394770852e-02 2.7696170369997799e-02 0.0000000000000000e+00 0.0000000000000000e+00 0.0000000000000000e+00 0.0000000000000000e+00  1.1851683024822488e+00 -4.4003387367012529e-02 0.0000000000000000e+00 -4.4003387367012529e-02 2.7433570694783676e-02 0.0000000000000000e+00 0.0000000000000000e+00 0.0000000000000000e+00 0.0000000000000000e+00  1.1829263290564749e+00 -4.5163996410743375e-02 0.0000000000000000e+00 -4.5163996410743375e-02 2.7138790393046112e-02 0.0000000000000000e+00 0.0000000000000000e+00 0.0000000000000000e+00 0.0000000000000000e+00  1.1805230393021600e+00 -4.6390151915568306e-02 0.0000000000000000e+00 -4.6390151915568292e-02 2.6938067707845716e-02 0.0000000000000000e+00 0.0000000000000000e+00 0.0000000000000000e+00 0.0000000000000000e+00  1.1781036102116498e+00 -4.7497732656900077e-02 0.0000000000000000e+00 -4.7497732656900077e-02 2.6608963467061205e-02 0.0000000000000000e+00 0.0000000000000000e+00 0.0000000000000000e+00 0.0000000000000000e+00  1.1756898921912151e+00 -4.8661967538313609e-02 0.0000000000000000e+00 -4.8661967538313609e-02 2.6430726422246260e-02 0.0000000000000000e+00 0.0000000000000000e+00 0.0000000000000000e+00 0.0000000000000000e+00  1.1730064932585929e+00 -4.9788136385081713e-02 0.0000000000000000e+00 -4.9788136385081713e-02 2.6097851904371007e-02 0.0000000000000000e+00 0.0000000000000000e+00 0.0000000000000000e+00 0.0000000000000000e+00  1.1706174364950030e+00 -5.0837816033473322e-02 0.0000000000000000e+00 -5.0837816033473322e-02 2.5931107477700690e-02 0.0000000000000000e+00 0.0000000000000000e+00 0.0000000000000000e+00 0.0000000000000000e+00  1.1677876368491233e+00 -5.1944160865049264e-02 0.0000000000000000e+00 -5.1944160865049264e-02 2.5631658451768586e-02 0.0000000000000000e+00 0.0000000000000000e+00 0.0000000000000000e+00 0.0000000000000000e+00  1.1651862243133864e+00 -5.2959838970502431e-02 0.0000000000000000e+00 -5.2959838970502431e-02 2.5274107204620394e-02 0.0000000000000000e+00 0.0000000000000000e+00 0.0000000000000000e+00 0.0000000000000000e+00  1.1623938327908088e+00 -5.4044075033210508e-02 0.0000000000000000e+00 -5.4044075033210508e-02 2.5097111092979300e-02 0.0000000000000000e+00 0.0000000000000000e+00 0.0000000000000000e+00 0.0000000000000000e+00  1.1595464431037730e+00 -5.5087369170862821e-02 0.0000000000000000e+00 -5.5087369170862821e-02 2.4718303261340412e-02 0.0000000000000000e+00 0.0000000000000000e+00 0.0000000000000000e+00 0.0000000000000000e+00  1.1568133864162689e+00 -5.6072007306877468e-02 0.0000000000000000e+00 -5.6072007306877468e-02 2.4535093056644020e-02 0.0000000000000000e+00 0.0000000000000000e+00 0.0000000000000000e+00 0.0000000000000000e+00  1.1537167239329909e+00 -5.7113035940811088e-02 0.0000000000000000e+00 -5.7113035940811088e-02 2.4139502318007808e-02 0.0000000000000000e+00 0.0000000000000000e+00 0.0000000000000000e+00 0.0000000000000000e+00  1.1509739982033467e+00 -5.8039115242259971e-02 0.0000000000000000e+00 -5.8039115242259971e-02 2.3935313432753284e-02 0.0000000000000000e+00 0.0000000000000000e+00 0.0000000000000000e+00 0.0000000000000000e+00  1.1477697908280127e+00 -5.9057781219659509e-02 0.0000000000000000e+00 -5.9057781219659509e-02 2.3586224343584726e-02 0.0000000000000000e+00 0.0000000000000000e+00 0.0000000000000000e+00 0.0000000000000000e+00  1.1448076112016807e+00 -6.0008275862465155e-02 0.0000000000000000e+00 -6.0008275862465155e-02 2.3225997777660896e-02 0.0000000000000000e+00 0.0000000000000000e+00 0.0000000000000000e+00 0.0000000000000000e+00  1.1415727448817445e+00 -6.0926777583380130e-02 0.0000000000000000e+00 -6.0926777583380130e-02 2.2849469412578833e-02 0.0000000000000000e+00 0.0000000000000000e+00 0.0000000000000000e+00 0.0000000000000000e+00  1.1383149739438403e+00 -6.1803861102689352e-02 0.0000000000000000e+00 -6.1803861102689352e-02 2.2433199465881255e-02 0.0000000000000000e+00 0.0000000000000000e+00 0.0000000000000000e+00 0.0000000000000000e+00  1.1353231492516527e+00 -6.2650655527388646e-02 0.0000000000000000e+00 -6.2650655527388646e-02 2.2201834696329050e-02 0.0000000000000000e+00 0.0000000000000000e+00 0.0000000000000000e+00 0.0000000000000000e+00  1.1318411446185339e+00 -6.3587426713160297e-02 0.0000000000000000e+00 -6.3587426713160297e-02 2.1797439321607444e-02 0.0000000000000000e+00 0.0000000000000000e+00 0.0000000000000000e+00 0.0000000000000000e+00  1.1286726100679119e+00 -6.4381905211425741e-02 0.0000000000000000e+00 -6.4381905211425741e-02 2.1441736421734848e-02 0.0000000000000000e+00 0.0000000000000000e+00 0.0000000000000000e+00 0.0000000000000000e+00  1.1251755578375746e+00 -6.5274987565072440e-02 0.0000000000000000e+00 -6.5274987565072440e-02 2.1061104160677933e-02 0.0000000000000000e+00 0.0000000000000000e+00 0.0000000000000000e+00 0.0000000000000000e+00  1.1219032305706116e+00 -6.6030329804285873e-02 0.0000000000000000e+00 -6.6030329804285873e-02 2.0648050051453329e-02 0.0000000000000000e+00 0.0000000000000000e+00 0.0000000000000000e+00 0.0000000000000000e+00  1.1184871008488912e+00 -6.6771992346387241e-02 0.0000000000000000e+00 -6.6771992346387241e-02 2.0277251025136958e-02 0.0000000000000000e+00 0.0000000000000000e+00 0.0000000000000000e+00 0.0000000000000000e+00  1.1147490672239806e+00 -6.7491052508558219e-02 0.0000000000000000e+00 -6.7491052508558219e-02 1.9880337361437919e-02 0.0000000000000000e+00 0.0000000000000000e+00 0.0000000000000000e+00 0.0000000000000000e+00  1.1114982448085167e+00 -6.8225870166460645e-02 0.0000000000000000e+00 -6.8225870166460645e-02 1.9538195215051450e-02 0.0000000000000000e+00 0.0000000000000000e+00 0.0000000000000000e+00 0.0000000000000000e+00  1.1076602406846567e+00 -6.8999035576296469e-02 0.0000000000000000e+00 -6.8999035576296469e-02 1.9064132469070821e-02 0.0000000000000000e+00 0.0000000000000000e+00 0.0000000000000000e+00 0.0000000000000000e+00  1.1042045804202374e+00 -6.9630642977524401e-02 0.0000000000000000e+00 -6.9630642977524401e-02 1.8620430701846602e-02 0.0000000000000000e+00 0.0000000000000000e+00 0.0000000000000000e+00 0.0000000000000000e+00  1.1004375459362390e+00 -7.0337573769403888e-02 0.0000000000000000e+00 -7.0337573769403888e-02 1.8217937149918515e-02 0.0000000000000000e+00 0.0000000000000000e+00 0.0000000000000000e+00 0.0000000000000000e+00  1.0967130527616549e+00 -7.0972493680970597e-02 0.0000000000000000e+00 -7.0972493680970597e-02 1.7697189322287657e-02 0.0000000000000000e+00 0.0000000000000000e+00 0.0000000000000000e+00 0.0000000000000000e+00  1.0930743918842332e+00 -7.1569289403025038e-02 0.0000000000000000e+00 -7.1569289403025038e-02 1.7284752010769046e-02 0.0000000000000000e+00 0.0000000000000000e+00 0.0000000000000000e+00 0.0000000000000000e+00  1.0891255978835617e+00 -7.2137572446887357e-02 0.0000000000000000e+00 -7.2137572446887357e-02 1.6799397008170444e-02 0.0000000000000000e+00 0.0000000000000000e+00 0.0000000000000000e+00 0.0000000000000000e+00  1.0855667455835918e+00 -7.2686088458335463e-02 0.0000000000000000e+00 -7.2686088458335463e-02 1.6341839140540576e-02 0.0000000000000000e+00 0.0000000000000000e+00 0.0000000000000000e+00 0.0000000000000000e+00  1.0814740594956187e+00 -7.3223741717126908e-02 0.0000000000000000e+00 -7.3223741717126908e-02 1.5835531222350523e-02 0.0000000000000000e+00 0.0000000000000000e+00 0.0000000000000000e+00 0.0000000000000000e+00  1.0777622640084041e+00 -7.3686776830533610e-02 0.0000000000000000e+00 -7.3686776830533610e-02 1.5353437782543326e-02 0.0000000000000000e+00 0.0000000000000000e+00 0.0000000000000000e+00 0.0000000000000000e+00  1.0738140028295267e+00 -7.4189751851502811e-02 0.0000000000000000e+00 -7.4189751851502811e-02 1.4862883013160100e-02 0.0000000000000000e+00 0.0000000000000000e+00 0.0000000000000000e+00 0.0000000000000000e+00  1.0698272052294202e+00 -7.4622195567213209e-02 0.0000000000000000e+00 -7.4622195567213209e-02 1.4363747279101237e-02 0.0000000000000000e+00 0.0000000000000000e+00 0.0000000000000000e+00 0.0000000000000000e+00  1.0660972241161006e+00 -7.5032315591555349e-02 0.0000000000000000e+00 -7.5032315591555349e-02 1.3923354387516892e-02 0.0000000000000000e+00 0.0000000000000000e+00 0.0000000000000000e+00 0.0000000000000000e+00  1.0619264138410378e+00 -7.5485070844139704e-02 0.0000000000000000e+00 -7.5485070844139704e-02 1.3408189528888663e-02 0.0000000000000000e+00 0.0000000000000000e+00 0.0000000000000000e+00 0.0000000000000000e+00  1.0581519472503200e+00 -7.5853634962623817e-02 0.0000000000000000e+00 -7.5853634962623817e-02 1.2917611363420066e-02 0.0000000000000000e+00 0.0000000000000000e+00 0.0000000000000000e+00 0.0000000000000000e+00  1.0539484978114717e+00 -7.6241713760859489e-02 0.0000000000000000e+00 -7.6241713760859489e-02 1.2355255434595014e-02 0.0000000000000000e+00 0.0000000000000000e+00 0.0000000000000000e+00 0.0000000000000000e+00  1.0499767581393977e+00 -7.6603401867202325e-02 0.0000000000000000e+00 -7.6603401867202325e-02 1.1825900428111505e-02 0.0000000000000000e+00 0.0000000000000000e+00 0.0000000000000000e+00 0.0000000000000000e+00  1.0459196669319619e+00 -7.6872912835689713e-02 0.0000000000000000e+00 -7.6872912835689713e-02 1.1256043037900445e-02 0.0000000000000000e+00 0.0000000000000000e+00 0.0000000000000000e+00 0.0000000000000000e+00  1.0417056711685946e+00 -7.7127516660739401e-02 0.0000000000000000e+00 -7.7127516660739401e-02 1.0689687831305358e-02 0.0000000000000000e+00 0.0000000000000000e+00 0.0000000000000000e+00 0.0000000000000000e+00  1.0378923328037544e+00 -7.7383741655053365e-02 0.0000000000000000e+00 -7.7383741655053365e-02 1.0226194383808033e-02 0.0000000000000000e+00 0.0000000000000000e+00 0.0000000000000000e+00 0.0000000000000000e+00  1.0334933945303320e+00 -7.7664822180965876e-02 0.0000000000000000e+00 -7.7664822180965876e-02 9.6291414308659288e-03 0.0000000000000000e+00 0.0000000000000000e+00 0.0000000000000000e+00 0.0000000000000000e+00  1.0295819441043639e+00 -7.7895886915348392e-02 0.0000000000000000e+00 -7.7895886915348392e-02 9.1106325021695234e-03 0.0000000000000000e+00 0.0000000000000000e+00 0.0000000000000000e+00 0.0000000000000000e+00  1.0252612053090071e+00 -7.8027692145153343e-02 0.0000000000000000e+00 -7.8027692145153343e-02 8.5248585294208888e-03 0.0000000000000000e+00 0.0000000000000000e+00 0.0000000000000000e+00 0.0000000000000000e+00  1.0211315112656958e+00 -7.8203991614735652e-02 0.0000000000000000e+00 -7.8203991614735652e-02 7.9675770202602657e-03 0.0000000000000000e+00 0.0000000000000000e+00 0.0000000000000000e+00 0.0000000000000000e+00  1.0170450136224298e+00 -7.8353918081998791e-02 0.0000000000000000e+00 -7.8353918081998791e-02 7.3585846932334685e-03 0.0000000000000000e+00 0.0000000000000000e+00 0.0000000000000000e+00 0.0000000000000000e+00  1.0126104681823480e+00 -7.8509283979037656e-02 0.0000000000000000e+00 -7.8509283979037656e-02 6.7121772186666201e-03 0.0000000000000000e+00 0.0000000000000000e+00 0.0000000000000000e+00 0.0000000000000000e+00  1.0087034808220869e+00 -7.8563741440354662e-02 0.0000000000000000e+00 -7.8563741440354662e-02 6.1573069205492362e-03 0.0000000000000000e+00 0.0000000000000000e+00 0.0000000000000000e+00 0.0000000000000000e+00  1.0042823247828223e+00 -7.8660571466003248e-02 0.0000000000000000e+00 -7.8660571466003235e-02 5.5098758713679778e-03 0.0000000000000000e+00 0.0000000000000000e+00 0.0000000000000000e+00 0.0000000000000000e+00  1.0002516262665286e+00 -7.8626598897099984e-02 0.0000000000000000e+00 -7.8626598897099956e-02 4.9200654488089435e-03 0.0000000000000000e+00 0.0000000000000000e+00 0.0000000000000000e+00 0.0000000000000000e+00  9.9602273037916833e-01 -7.8557262586665538e-02 0.0000000000000000e+00 -7.8557262586665538e-02 4.2937764916976982e-03 0.0000000000000000e+00 0.0000000000000000e+00 0.0000000000000000e+00 0.0000000000000000e+00  9.9164180433793658e-01 -7.8560212972821022e-02 0.0000000000000000e+00 -7.8560212972821022e-02 3.6272990570210559e-03 0.0000000000000000e+00 0.0000000000000000e+00 0.0000000000000000e+00 0.0000000000000000e+00  9.8768962437834706e-01 -7.8439025886304303e-02 0.0000000000000000e+00 -7.8439025886304303e-02 3.0479802268537832e-03 0.0000000000000000e+00 0.0000000000000000e+00 0.0000000000000000e+00 0.0000000000000000e+00  9.8323631848510684e-01 -7.8314356716816719e-02 0.0000000000000000e+00 -7.8314356716816719e-02 2.2898275000275670e-03 0.0000000000000000e+00 0.0000000000000000e+00 0.0000000000000000e+00 0.0000000000000000e+00  9.7921974455107563e-01 -7.8243424107093021e-02 0.0000000000000000e+00 -7.8243424107093021e-02 1.7276471251736413e-03 0.0000000000000000e+00 0.0000000000000000e+00 0.0000000000000000e+00 0.0000000000000000e+00  9.7484140400755470e-01 -7.8044757389986688e-02 0.0000000000000000e+00 -7.8044757389986688e-02 1.0695222448055999e-03 0.0000000000000000e+0