<?xml version="1.0"?>
<VTKFile type="UnstructuredGrid"  version="0.1"  >
<UnstructuredGrid>
<Piece  NumberOfPoints="4308" NumberOfCells="6832">
<Points>
<DataArray  type="Float64"  NumberOfComponents="3"  format="ascii">0 0.01 0  10 0.01 0  0 1.011043849308668 0  10 1.011043849308668 0  0.007129524987038337 0.009997491741717768 0  0.01258064459049757 0.00999219056738478 0  0.01872173241756402 0.009982708334120727 0  0.02429919625640796 0.009970876572043954 0  0.03017238705920286 0.009955108531615313 0  0.03612352734296466 0.0099356743715591 0  0.04164979236492252 0.009914517792428084 0  0.04780928449023854 0.009887415768096998 0  0.05327287671237849 0.009860276931383746 0  0.0593436395885565 0.009826715421083503 0  0.06505608699933001 0.009791870631895848 0  0.07077243060783153 0.009753845329312128 0  0.07684085351634186 0.009710036052663748 0  0.08230528612367993 0.009667566921662384 0  0.08846525752759338 0.009616276826848907 0  0.09398926586603956 0.0095672187064786 0  0.09994377871281757 0.009511110804477986 0  0.10581288515308 0.009452550633355501 0  0.1113930001121819 0.009393893683773193 0  0.1175326299024069 0.009326020378011352 0  0.122983161250664 0.009262856809916281 0  0.1290978349347763 0.009188765415777931 0  0.1347300222736412 0.00911751981665075 0  0.1405327472005438 0.009041131768776852 0  0.1465421455697866 0.008958856277281909 0  0.1520341809431761 0.008880870879718691 0  0.1581991754706344 0.00879018143976357 0  0.1636834803794234 0.008706732874359017 0  0.1697073563005918 0.008612096527554045 0  0.1754901396361989 0.008518345936558386 0  0.1811391035120075 0.008424050210098115 0  0.1872444279222087 0.00831915423323064 0  0.1926961446341008 0.008222899998379215 0  0.198841090009393 0.008111516418624823 0  0.2044064770158165 0.008008028244452866 0  0.2102948627703611 0.007895869216798803 0  0.2162299794791283 0.007780085801116003 0  0.2217647046821167 0.007669675498109103 0  0.2279204403470532 0.007544154739747676 0  0.2333791472114919 0.007430485124751003 0  0.2394590817234977 0.0073013084386626 0  0.245152498789355 0.007177928079207972 0  0.2508861115607116 0.007051356111670669 0  0.2569419868439766 0.006915186417023598 0  0.2624099649457279 0.006790084113692359 0  0.2685711825796066 0.006646722567663751 0  0.274083748205357 0.006516341894728842 0  0.2800541704182985 0.00637292855786236 0  0.2859022845836161 0.006230279166502627 0  0.291495955429921 0.006091868246150131 0  0.2976275706217687 0.005937986548763313 0  0.3030757324287757 0.005799406374294222 0  0.3091980118239236 0.005641654227187252 0  0.3148109405089491 0.005495191514879527 0  0.3206341933715942 0.005341435282378838 0  0.3266248575896781 0.005181393525330103 0  0.3321252080346692 0.005032833254881577 0  0.3382880718234609 0.004864596209960478 0  0.3437628463580178 0.004713611578807419 0  0.3498021006600692 0.004545443593512952 0  0.3555594631656461 0.004383601001460968 0  0.3612291099056053 0.004222822711549606 0  0.3673210805066339 0.004048576418709386 0  0.3727746135437823 0.003891330909934085 0  0.3789246700786391 0.003712634483246944 0  0.3844721023230384 0.00355025746928806 0  0.3903845048135511 0.003376011435332509 0  0.3962935688476314 0.003200699755406988 0  0.4018430601204535 0.00303505085978487 0  0.4079921977692303 0.002850427660455144 0  0.4134449905916002 0.002685819499171436 0  0.4195385366679084 0.002500937932218923 0  0.425204482428441 0.002328206591247292 0  0.4309651825948974 0.00215183074136113 0  0.4370014133195289 0.001966263547608745 0  0.4424769325836848 0.00179732019881714 0  0.4486395183564056 0.001606544730410899 0  0.4541373275735043 0.001435838569361521 0  0.4601308451156257 0.001249254088784412 0  0.4659488863550298 0.001067707976620331 0  0.471564807260988 0.0008921302908496037 0  0.4776843759254726 0.0007004920228137959 0  0.4831317484445766 0.0005296836585198918 0  0.4892643513384632 0.0003372062279158936 0  0.4948528283485032 0.000161696161435303 0  0.5007056813361916 -2.216943068070812e-05 0  0.5066699093509902 -0.000209526046556915 0  0.5121845298566023 -0.0003826949545447442 0  0.5183439831944545 -0.0005759742926309219 0  0.5238088617282698 -0.0007472800272428554 0  0.5298681543527348 -0.0009369594486414562 0  0.5355929349139432 -0.001115856450691032 0  0.5412927239341832 -0.001293613669039852 0  0.5473668732672543 -0.001482588207084091 0  0.5528259073001393 -0.001651967505962102 0  0.5589819336317072 -0.001842386787779294 0  0.5645100189486582 -0.002012797049529044 0  0.5704524332663232 -0.002195301346534757 0  0.5763298911552834 -0.002375058665203144 0  0.5819006708717119 -0.002544689651648297 0  0.5880413281562127 -0.002730768313747055 0  0.5934904284812221 -0.002895042191696308 0  0.5995995320960693 -0.003078202338538874 0  0.605236779888003 -0.003246210954182579 0  0.6110299855290301 -0.003417806240976177 0  0.6170432999212266 -0.00359472323302265 0  0.6225307972792151 -0.00375505261922207 0  0.6286944373476531 -0.003933803567825084 0  0.6341794289295242 -0.004091634709336539 0  0.6401977648984302 -0.004263413669385436 0  0.6459846030577213 -0.004427148756161272 0  0.6516277670629291 -0.004585409549508515 0  0.6577342305863492 -0.004755038487876419 0  0.6631843111407589 -0.004904958327357115 0  0.6693271588517591 -0.005072208653571043 0  0.6748942591145469 -0.005222152905474348 0  0.6807781354428797 -0.005378892074409919 0  0.6867158102497221 -0.005535201343768038 0  0.6922478556369909 -0.005679100421160843 0  0.6984036264198542 -0.005837205328254034 0  0.7038624132928571 -0.005975584427524931 0  0.7099402809449575 -0.006127588021236129 0  0.7156361945945205 -0.006268012368771779 0  0.7213667017809595 -0.006407263887957157 0  0.7274241898103784 -0.006552202568912044 0  0.7328913375361901 -0.006680980644346233 0  0.7390522654079078 -0.006823736587757829 0  0.7445663161830813 -0.006949337256267011 0  0.7505345306161221 -0.007082931996795786 0  0.7563856967966242 -0.007211490056377221 0  0.7619775509571868 -0.007332073958440476 0  0.7681106054434813 -0.007461725199742056 0  0.7735594228940573 -0.007574589702563127 0  0.7796809699364847 -0.007698739982391196 0  0.7852974086111042 -0.007810142587226769 0  0.7911178568436495 -0.007923025648348906 0  0.797112403703894 -0.008036515862006795 0  0.8026119630288198 -0.008138129173272899 0  0.8087760180262171 -0.008249131188213875 0  0.814253500572072 -0.008345174877796967 0  0.8202905515677629 -0.008448166667805387 0  0.8260544286221699 -0.008543663134562481 0  0.831720415905675 -0.008634807324656511 0  0.8378167080097026 -0.008729817306667463 0  0.8432709709919499 -0.008812108559864256 0  0.8494209576248264 -0.008901791974276371 0  0.8549745826348545 -0.008979924427376591 0  0.8608814329347291 -0.009060026011188804 0  0.8667998142885592 -0.009137155111096256 0  0.8723460990452367 -0.009206568509458774 0  0.8784989383774584 -0.009280301817794542 0  0.8839552890388401 -0.009342788637451834 0  0.8900456692707091 -0.009409293585850673 0  0.8957233874467343 -0.009468190513990782 0  0.9014754209053449 -0.009524786393944277 0  0.9075213579987256 -0.009580921173179099 0  0.9129954731058688 -0.009628765913494807 0  0.9191593188847452 -0.009679229788646495 0  0.9246655330424429 -0.009721240864333262 0  0.9306503084472221 -0.009763603884533442 0  0.9364847200361547 -0.009801580348484516 0  0.9420914259676206 -0.009834972127394636 0  0.948219177636862 -0.009867976960504428 0  0.9536688877131657 -0.009894257783109666 0  0.9597979104438458 -0.009920349306153329 0  0.9654020314719589 -0.009940987600901847 0  0.9712398170272581 -0.009959209624459757 0  0.9772219132298864 -0.009974407121723252 0  0.9827297975109929 -0.009985285083248089 0  0.9888934840407251 -0.009993913310034224 0  0.9943667421923366 -0.009998434045983932 0  1.000414962337846 -0.009999991502249178 0  1.00616395254491 -0.009998125110441144 0  1.011844857354635 -0.009993077234903055 0  1.017933801412069 -0.009984132829796667 0  1.023390946643176 -0.00997301205183276 0  1.029544679732296 -0.009956955598792184 0  1.035089558108845 -0.009939300412459717 0  1.041010936359372 -0.009917116481575694 0  1.04691554237944 -0.00989157814857561 0  1.052471258615448 -0.009864440751261633 0  1.05862104751389 -0.009830897850136421 0  1.064075481579663 -0.009798076706746352 0  1.070173358231585 -0.009757978136698224 0  1.075837941143087 -0.00971752009646258 0  1.081604377355612 -0.009673173917302162 0  1.087640686528322 -0.009623351755525641 0  1.093119387704205 -0.009575135453199036 0  1.099284093826516 -0.009517491101966447 0  1.104783734376909 -0.009463052176492596 0  1.110779897618174 -0.009400480030121557 0  1.116599992234411 -0.00933655469875222 0  1.122217899723542 -0.009271889359757672 0  1.128339818747432 -0.009198135031144493 0  1.133789446190431 -0.00912961705214143 0  1.139923317158062 -0.009049295973540348 0  1.145515844317945 -0.008973134373133167 0  1.151367773813766 -0.008890475161473248 0  1.157336906671575 -0.008803064948780913 0  1.16285160438384 -0.008719557366803981 0  1.16901331600552 -0.008623157866544266 0  1.174481522907442 -0.00853490108265173 0  1.180539122189597 -0.008434191931863186 0  1.186271617394136 -0.008336073959344166 0  1.191966996821913 -0.008235914041393521 0  1.198046448076202 -0.008126091334838595 0  1.203505695906331 -0.008024945109277802 0  1.209661806077474 -0.007908057515838151 0  1.21519584913737 -0.007800455577732041 0  1.221132109188887 -0.00768241304184519 0  1.227019087412133 -0.007562711583992629 0  1.232585135446325 -0.007447155722966398 0  1.238729389023077 -0.007316953404904543 0  1.244180486899644 -0.007199156086382225 0  1.250286093435722 -0.007064709646262071 0  1.255932842016573 -0.006938052500145445 0  1.261716857103797 -0.006806053534187844 0  1.26773845151126 -0.006666245775332091 0  1.273222687278595 -0.006536836953056475 0  1.279386853652711 -0.00638906998029936 0  1.284876650734994 -0.006255450389977176 0  1.290887326898431 -0.00610702037198264 0  1.296685536664392 -0.00596177282270944 0  1.30231949087952 -0.005818744638503708 0  1.308431215520824
[...]
<PointData  Tensors="Total Stress"> 
<DataArray  type="Float64"  Name="Total Stress"  NumberOfComponents="9" format="ascii">1.2305528007394904e+00 1.6501817376459143e-05 0.0000000000000000e+00 1.6501817376459140e-05 3.9163601986223880e-02 0.0000000000000000e+00 0.0000000000000000e+00 0.0000000000000000e+00 0.0000000000000000e+00  1.2305528007394904e+00 1.6501817376459143e-05 0.0000000000000000e+00 1.6501817376459140e-05 3.9163601986223880e-02 0.0000000000000000e+00 0.0000000000000000e+00 0.0000000000000000e+00 0.0000000000000000e+00  8.7478249366225846e-01 1.2661483411477990e-04 0.0000000000000000e+00 1.2661483411477990e-04 -3.2338476943424292e-03 0.0000000000000000e+00 0.0000000000000000e+00 0.0000000000000000e+00 0.0000000000000000e+00  8.7478249366225846e-01 1.2661483411477990e-04 0.0000000000000000e+00 1.2661483411477990e-04 -3.2338476943424292e-03 0.0000000000000000e+00 0.0000000000000000e+00 0.0000000000000000e+00 0.0000000000000000e+00  1.2304909987117700e+00 -1.9198549140126264e-03 0.0000000000000000e+00 -1.9198549140126264e-03 3.8908595677838255e-02 0.0000000000000000e+00 0.0000000000000000e+00 0.0000000000000000e+00 0.0000000000000000e+00  1.2303606802943905e+00 -3.3896193895374994e-03 0.0000000000000000e+00 -3.3896193895374994e-03 3.8991395797237309e-02 0.0000000000000000e+00 0.0000000000000000e+00 0.0000000000000000e+00 0.0000000000000000e+00  1.2302705116555184e+00 -4.9779423538031282e-03 0.0000000000000000e+00 -4.9779423538031282e-03 3.9089994108661284e-02 0.0000000000000000e+00 0.0000000000000000e+00 0.0000000000000000e+00 0.0000000000000000e+00  1.2299169335597353e+00 -6.4705686892122206e-03 0.0000000000000000e+00 -6.4705686892122206e-03 3.8881160018282804e-02 0.0000000000000000e+00 0.0000000000000000e+00 0.0000000000000000e+00 0.0000000000000000e+00  1.2295115092920434e+00 -8.0578538227482569e-03 0.0000000000000000e+00 -8.0578538227482569e-03 3.9023502069370671e-02 0.0000000000000000e+00 0.0000000000000000e+00 0.0000000000000000e+00 0.0000000000000000e+00  1.2290914301823019e+00 -9.6416398903720266e-03 0.0000000000000000e+00 -9.6416398903720266e-03 3.8840917398704870e-02 0.0000000000000000e+00 0.0000000000000000e+00 0.0000000000000000e+00 0.0000000000000000e+00  1.2286213406681228e+00 -1.1109961257577204e-02 0.0000000000000000e+00 -1.1109961257577204e-02 3.8879454006249238e-02 0.0000000000000000e+00 0.0000000000000000e+00 0.0000000000000000e+00 0.0000000000000000e+00  1.2279758445688025e+00 -1.2775336854788008e-02 0.0000000000000000e+00 -1.2775336854788008e-02 3.8755882147422940e-02 0.0000000000000000e+00 0.0000000000000000e+00 0.0000000000000000e+00 0.0000000000000000e+00  1.2273553235085499e+00 -1.4257429953818667e-02 0.0000000000000000e+00 -1.4257429953818667e-02 3.8642061265925731e-02 0.0000000000000000e+00 0.0000000000000000e+00 0.0000000000000000e+00 0.0000000000000000e+00  1.2265657647891344e+00 -1.5846309306377260e-02 0.0000000000000000e+00 -1.5846309306377260e-02 3.8519555731796662e-02 0.0000000000000000e+00 0.0000000000000000e+00 0.0000000000000000e+00 0.0000000000000000e+00  1.2257249301577853e+00 -1.7383381683508128e-02 0.0000000000000000e+00 -1.7383381683508128e-02 3.8380257591958601e-02 0.0000000000000000e+00 0.0000000000000000e+00 0.0000000000000000e+00 0.0000000000000000e+00  1.2248505101408877e+00 -1.8850495162448109e-02 0.0000000000000000e+00 -1.8850495162448109e-02 3.8245833146429431e-02 0.0000000000000000e+00 0.0000000000000000e+00 0.0000000000000000e+00 0.0000000000000000e+00  1.2238414591373488e+00 -2.0398369087427894e-02 0.0000000000000000e+00 -2.0398369087427894e-02 3.8174050758155297e-02 0.0000000000000000e+00 0.0000000000000000e+00 0.0000000000000000e+00 0.0000000000000000e+00  1.2226758900371248e+00 -2.1859666228766530e-02 0.0000000000000000e+00 -2.1859666228766530e-02 3.7870048039533276e-02 0.0000000000000000e+00 0.0000000000000000e+00 0.0000000000000000e+00 0.0000000000000000e+00  1.2216899765466072e+00 -2.3410990966842259e-02 0.0000000000000000e+00 -2.3410990966842259e-02 3.7874923930212891e-02 0.0000000000000000e+00 0.0000000000000000e+00 0.0000000000000000e+00 0.0000000000000000e+00  1.2202985091414880e+00 -2.4840441880494252e-02 0.0000000000000000e+00 -2.4840441880494252e-02 3.7498886006988925e-02 0.0000000000000000e+00 0.0000000000000000e+00 0.0000000000000000e+00 0.0000000000000000e+00  1.2192271933032999e+00 -2.6334209244643966e-02 0.0000000000000000e+00 -2.6334209244643966e-02 3.7462739463884384e-02 0.0000000000000000e+00 0.0000000000000000e+00 0.0000000000000000e+00 0.0000000000000000e+00  1.2176936415840613e+00 -2.7764634484504263e-02 0.0000000000000000e+00 -2.7764634484504263e-02 3.7217192092740291e-02 0.0000000000000000e+00 0.0000000000000000e+00 0.0000000000000000e+00 0.0000000000000000e+00  1.2164816440728665e+00 -2.9205465180751740e-02 0.0000000000000000e+00 -2.9205465180751740e-02 3.7209215605598984e-02 0.0000000000000000e+00 0.0000000000000000e+00 0.0000000000000000e+00 0.0000000000000000e+00  1.2149321671285829e+00 -3.0701509433887445e-02 0.0000000000000000e+00 -3.0701509433887445e-02 3.7007143029238215e-02 0.0000000000000000e+00 0.0000000000000000e+00 0.0000000000000000e+00 0.0000000000000000e+00  1.2133569291767980e+00 -3.2051806904206413e-02 0.0000000000000000e+00 -3.2051806904206413e-02 3.6678805780924778e-02 0.0000000000000000e+00 0.0000000000000000e+00 0.0000000000000000e+00 0.0000000000000000e+00  1.2118061509291282e+00 -3.3500203131996656e-02 0.0000000000000000e+00 -3.3500203131996656e-02 3.6636993664384769e-02 0.0000000000000000e+00 0.0000000000000000e+00 0.0000000000000000e+00 0.0000000000000000e+00  1.2100035699559288e+00 -3.4970859692223050e-02 0.0000000000000000e+00 -3.4970859692223050e-02 3.6357303059537667e-02 0.0000000000000000e+00 0.0000000000000000e+00 0.0000000000000000e+00 0.0000000000000000e+00  1.2081137649272822e+00 -3.6368963029149513e-02 0.0000000000000000e+00 -3.6368963029149513e-02 3.6017263505595996e-02 0.0000000000000000e+00 0.0000000000000000e+00 0.0000000000000000e+00 0.0000000000000000e+00  1.2062086176868325e+00 -3.7777988233519667e-02 0.0000000000000000e+00 -3.7777988233519667e-02 3.5737626855318456e-02 0.0000000000000000e+00 0.0000000000000000e+00 0.0000000000000000e+00 0.0000000000000000e+00  1.2044447687391233e+00 -3.9053941754334513e-02 0.0000000000000000e+00 -3.9053941754334513e-02 3.5583868674362987e-02 0.0000000000000000e+00 0.0000000000000000e+00 0.0000000000000000e+00 0.0000000000000000e+00  1.2023564177702806e+00 -4.0482921774220755e-02 0.0000000000000000e+00 -4.0482921774220755e-02 3.5304609713129098e-02 0.0000000000000000e+00 0.0000000000000000e+00 0.0000000000000000e+00 0.0000000000000000e+00  1.2003219449319797e+00 -4.1749105796036245e-02 0.0000000000000000e+00 -4.1749105796036245e-02 3.4936972888524008e-02 0.0000000000000000e+00 0.0000000000000000e+00 0.0000000000000000e+00 0.0000000000000000e+00  1.1982075916144321e+00 -4.3076994615552901e-02 0.0000000000000000e+00 -4.3076994615552901e-02 3.4736345032472950e-02 0.0000000000000000e+00 0.0000000000000000e+00 0.0000000000000000e+00 0.0000000000000000e+00  1.1960254692657581e+00 -4.4393411687902416e-02 0.0000000000000000e+00 -4.4393411687902416e-02 3.4415090640089074e-02 0.0000000000000000e+00 0.0000000000000000e+00 0.0000000000000000e+00 0.0000000000000000e+00  1.1939343902063111e+00 -4.5609934364143935e-02 0.0000000000000000e+00 -4.5609934364143935e-02 3.4238938685414645e-02 0.0000000000000000e+00 0.0000000000000000e+00 0.0000000000000000e+00 0.0000000000000000e+00  1.1914007293625213e+00 -4.7012048371669619e-02 0.0000000000000000e+00 -4.7012048371669619e-02 3.3844150992780903e-02 0.0000000000000000e+00 0.0000000000000000e+00 0.0000000000000000e+00 0.0000000000000000e+00  1.1893250082848852e+00 -4.8227172475735103e-02 0.0000000000000000e+00 -4.8227172475735103e-02 3.3652277391813014e-02 0.0000000000000000e+00 0.0000000000000000e+00 0.0000000000000000e+00 0.0000000000000000e+00  1.1866502799913714e+00 -4.9475440548638235e-02 0.0000000000000000e+00 -4.9475440548638235e-02 3.3345848206477346e-02 0.0000000000000000e+00 0.0000000000000000e+00 0.0000000000000000e+00 0.0000000000000000e+00  1.1841554558408045e+00 -5.0661571874387849e-02 0.0000000000000000e+00 -5.0661571874387849e-02 3.2985778145282876e-02 0.0000000000000000e+00 0.0000000000000000e+00 0.0000000000000000e+00 0.0000000000000000e+00  1.1815762297962613e+00 -5.1974084285608041e-02 0.0000000000000000e+00 -5.1974084285608041e-02 3.2659956413515587e-02 0.0000000000000000e+00 0.0000000000000000e+00 0.0000000000000000e+00 0.0000000000000000e+00  1.1788401334992269e+00 -5.3187548805359260e-02 0.0000000000000000e+00 -5.3187548805359260e-02 3.2328968532635990e-02 0.0000000000000000e+00 0.0000000000000000e+00 0.0000000000000000e+00 0.0000000000000000e+00  1.1763089407050549e+00 -5.4261947318007785e-02 0.0000000000000000e+00 -5.4261947318007785e-02 3.2021895105272036e-02 0.0000000000000000e+00 0.0000000000000000e+00 0.0000000000000000e+00 0.0000000000000000e+00  1.1735065509574416e+00 -5.5461033616686625e-02 0.0000000000000000e+00 -5.5461033616686625e-02 3.1645965271458090e-02 0.0000000000000000e+00 0.0000000000000000e+00 0.0000000000000000e+00 0.0000000000000000e+00  1.1708643112294674e+00 -5.6588316750120139e-02 0.0000000000000000e+00 -5.6588316750120111e-02 3.1320887074937069e-02 0.0000000000000000e+00 0.0000000000000000e+00 0.0000000000000000e+00 0.0000000000000000e+00  1.1678488347659299e+00 -5.7724571621286067e-02 0.0000000000000000e+00 -5.7724571621286067e-02 3.0967121198068995e-02 0.0000000000000000e+00 0.0000000000000000e+00 0.0000000000000000e+00 0.0000000000000000e+00  1.1650001409060373e+00 -5.8835827603873313e-02 0.0000000000000000e+00 -5.8835827603873313e-02 3.0571766921017984e-02 0.0000000000000000e+00 0.0000000000000000e+00 0.0000000000000000e+00 0.0000000000000000e+00  1.1620860500059504e+00 -5.9992920898556630e-02 0.0000000000000000e+00 -5.9992920898556637e-02 3.0187593803756126e-02 0.0000000000000000e+00 0.0000000000000000e+00 0.0000000000000000e+00 0.0000000000000000e+00  1.1589359352244133e+00 -6.1074842987683821e-02 0.0000000000000000e+00 -6.1074842987683800e-02 2.9743901207224303e-02 0.0000000000000000e+00 0.0000000000000000e+00 0.0000000000000000e+00 0.0000000000000000e+00  1.1560487988365875e+00 -6.2082870613469843e-02 0.0000000000000000e+00 -6.2082870613469843e-02 2.9340187243825300e-02 0.0000000000000000e+00 0.0000000000000000e+00 0.0000000000000000e+00 0.0000000000000000e+00  1.1527162579574231e+00 -6.3164465364090913e-02 0.0000000000000000e+00 -6.3164465364090913e-02 2.8901465480156520e-02 0.0000000000000000e+00 0.0000000000000000e+00 0.0000000000000000e+00 0.0000000000000000e+00  1.1496951680800105e+00 -6.4117567452437130e-02 0.0000000000000000e+00 -6.4117567452437130e-02 2.8486664539778231e-02 0.0000000000000000e+00 0.0000000000000000e+00 0.0000000000000000e+00 0.0000000000000000e+00  1.1463480951790572e+00 -6.5144511050316989e-02 0.0000000000000000e+00 -6.5144511050316989e-02 2.8031146062293576e-02 0.0000000000000000e+00 0.0000000000000000e+00 0.0000000000000000e+00 0.0000000000000000e+00  1.1429464480214500e+00 -6.6088383196362302e-02 0.0000000000000000e+00 -6.6088383196362302e-02 2.7471420051136484e-02 0.0000000000000000e+00 0.0000000000000000e+00 0.0000000000000000e+00 0.0000000000000000e+00  1.1398068136036017e+00 -6.6980504422925691e-02 0.0000000000000000e+00 -6.6980504422925691e-02 2.7102336756286722e-02 0.0000000000000000e+00 0.0000000000000000e+00 0.0000000000000000e+00 0.0000000000000000e+00  1.1361821605487736e+00 -6.7976992169202402e-02 0.0000000000000000e+00 -6.7976992169202402e-02 2.6588850651411332e-02 0.0000000000000000e+00 0.0000000000000000e+00 0.0000000000000000e+00 0.0000000000000000e+00  1.1329477235733474e+00 -6.8842350260956489e-02 0.0000000000000000e+00 -6.8842350260956489e-02 2.6126338333029023e-02 0.0000000000000000e+00 0.0000000000000000e+00 0.0000000000000000e+00 0.0000000000000000e+00  1.1292380455558975e+00 -6.9727994339486066e-02 0.0000000000000000e+00 -6.9727994339486066e-02 2.5617408755047671e-02 0.0000000000000000e+00 0.0000000000000000e+00 0.0000000000000000e+00 0.0000000000000000e+00  1.1257892176165158e+00 -7.0564562438000980e-02 0.0000000000000000e+00 -7.0564562438000952e-02 2.5114364083377083e-02 0.0000000000000000e+00 0.0000000000000000e+00 0.0000000000000000e+00 0.0000000000000000e+00  1.1221731738283180e+00 -7.1426219911503844e-02 0.0000000000000000e+00 -7.1426219911503858e-02 2.4576681309104648e-02 0.0000000000000000e+00 0.0000000000000000e+00 0.0000000000000000e+00 0.0000000000000000e+00  1.1184032835582587e+00 -7.2219926992910397e-02 0.0000000000000000e+00 -7.2219926992910397e-02 2.4004835670238252e-02 0.0000000000000000e+00 0.0000000000000000e+00 0.0000000000000000e+00 0.0000000000000000e+00  1.1149409095549969e+00 -7.2935792978839745e-02 0.0000000000000000e+00 -7.2935792978839745e-02 2.3491644684977154e-02 0.0000000000000000e+00 0.0000000000000000e+00 0.0000000000000000e+00 0.0000000000000000e+00  1.1109971093759003e+00 -7.3739534863954168e-02 0.0000000000000000e+00 -7.3739534863954168e-02 2.2907313293879742e-02 0.0000000000000000e+00 0.0000000000000000e+00 0.0000000000000000e+00 0.0000000000000000e+00  1.1074414218080126e+00 -7.4410798255993074e-02 0.0000000000000000e+00 -7.4410798255993074e-02 2.2365599696912507e-02 0.0000000000000000e+00 0.0000000000000000e+00 0.0000000000000000e+00 0.0000000000000000e+00  1.1035302793727790e+00 -7.5109030335434368e-02 0.0000000000000000e+00 -7.5109030335434368e-02 2.1804824508036828e-02 0.0000000000000000e+00 0.0000000000000000e+00 0.0000000000000000e+00 0.0000000000000000e+00  1.0996871513733637e+00 -7.5806111977982371e-02 0.0000000000000000e+00 -7.5806111977982371e-02 2.1214579607806729e-02 0.0000000000000000e+00 0.0000000000000000e+00 0.0000000000000000e+00 0.0000000000000000e+00  1.0959655683084022e+00 -7.6435278078502464e-02 0.0000000000000000e+00 -7.6435278078502464e-02 2.0691981866432858e-02 0.0000000000000000e+00 0.0000000000000000e+00 0.0000000000000000e+00 0.0000000000000000e+00  1.0918499295876241e+00 -7.7088182148863607e-02 0.0000000000000000e+00 -7.7088182148863607e-02 2.0066535362244960e-02 0.0000000000000000e+00 0.0000000000000000e+00 0.0000000000000000e+00 0.0000000000000000e+00  1.0881108777035808e+00 -7.7684219079346584e-02 0.0000000000000000e+00 -7.7684219079346584e-02 1.9486801676200559e-02 0.0000000000000000e+00 0.0000000000000000e+00 0.0000000000000000e+00 0.0000000000000000e+00  1.0838893449486970e+00 -7.8267091976235145e-02 0.0000000000000000e+00 -7.8267091976235145e-02 1.8813062480789417e-02 0.0000000000000000e+00 0.0000000000000000e+00 0.0000000000000000e+00 0.0000000000000000e+00  1.0800285846201925e+00 -7.8812901629864693e-02 0.0000000000000000e+00 -7.8812901629864693e-02 1.8200069626989227e-02 0.0000000000000000e+00 0.0000000000000000e+00 0.0000000000000000e+00 0.0000000000000000e+00  1.0758970459958668e+00 -7.9309843470320343e-02 0.0000000000000000e+00 -7.9309843470320343e-02 1.7545987386047644e-02 0.0000000000000000e+00 0.0000000000000000e+00 0.0000000000000000e+00 0.0000000000000000e+00  1.0717446977436529e+00 -7.9791861066597414e-02 0.0000000000000000e+00 -7.9791861066597428e-02 1.6875022273504146e-02 0.0000000000000000e+00 0.0000000000000000e+00 0.0000000000000000e+00 0.0000000000000000e+00  1.0677887810545421e+00 -8.0236995879441692e-02 0.0000000000000000e+00 -8.0236995879441692e-02 1.6230458760812010e-02 0.0000000000000000e+00 0.0000000000000000e+00 0.0000000000000000e+00 0.0000000000000000e+00  1.0634031691981605e+00 -8.0641949284154510e-02 0.0000000000000000e+00 -8.0641949284154496e-02 1.5501803691188769e-02 0.0000000000000000e+00 0.0000000000000000e+00 0.0000000000000000e+00 0.0000000000000000e+00  1.0595290389538643e+00 -8.0973593287588991e-02 0.0000000000000000e+00 -8.0973593287588991e-02 1.4889903497257571e-02 0.0000000000000000e+00 0.0000000000000000e+00 0.0000000000000000e+00 0.0000000000000000e+00  1.0552606130020972e+00 -8.1347651033819968e-02 0.0000000000000000e+00 -8.1347651033819968e-02 1.4271662235408367e-02 0.0000000000000000e+00 0.0000000000000000e+00 0.0000000000000000e+00 0.0000000000000000e+00  1.0511891281718853e+00 -8.1707090713354316e-02 0.0000000000000000e+00 -8.1707090713354316e-02 1.3646705160273167e-02 0.0000000000000000e+00 0.0000000000000000e+00 0.0000000000000000e+00 0.0000000000000000e+00  1.0470586289855344e+00 -8.2003700090622925e-02 0.0000000000000000e+00 -8.2003700090622925e-02 1.3024095428006241e-02 0.0000000000000000e+00 0.0000000000000000e+00 0.0000000000000000e+00 0.0000000000000000e+00  1.0426802416154153e+00 -8.2356641310744549e-02 0.0000000000000000e+00 -8.2356641310744549e-02 1.2327135345866855e-02 0.0000000000000000e+00 0.0000000000000000e+00 0.0000000000000000e+00 0.0000000000000000e+00  1.0387039958775355e+00 -8.2599920983664019e-02 0.0000000000000000e+00 -8.2599920983664019e-02 1.1735227922291825e-02 0.0000000000000000e+00 0.0000000000000000e+00 0.0000000000000000e+00 0.0000000000000000e+00  1.0342588388756495e+00 -8.2872740418094892e-02 0.0000000000000000e+00 -8.2872740418094892e-02 1.1020769596785270e-02 0.0000000000000000e+00 0.0000000000000000e+00 0.0000000000000000e+00 0.0000000000000000e+00  1.0301733929590684e+00 -8.3115359643736439e-02 0.0000000000000000e+00 -8.3115359643736439e-02 1.0335892892297164e-02 0.0000000000000000e+00 0.0000000000000000e+00 0.0000000000000000e+00 0.0000000000000000e+00  1.0257346083865742e+00 -8.3304629382268375e-02 0.0000000000000000e+00 -8.3304629382268375e-02 9.5948058182813191e-03 0.0000000000000000e+00 0.0000000000000000e+00 0.0000000000000000e+00 0.0000000000000000e+00  1.0214247093945472e+00 -8.3415646804643237e-02 0.0000000000000000e+00 -8.3415646804643237e-02 8.8650019937246000e-03 0.0000000000000000e+00 0.0000000000000000e+00 0.0000000000000000e+00 0.0000000000000000e+00  1.0173072519162436e+00 -8.3550012230129173e-02 0.0000000000000000e+00 -8.3550012230129173e-02 8.2055091298604832e-03 0.0000000000000000e+00 0.0000000000000000e+00 0.0000000000000000e+00 0.0000000000000000e+00  1.0127034826941934e+00 -8.3680555401422357e-02 0.0000000000000000e+00 -8.3680555401422357e-02 7.4182141701980234e-03 0.0000000000000000e+00 0.0000000000000000e+00 0.0000000000000000e+00 0.0000000000000000e+00  1.0086892519034114e+00 -8.3700125408588733e-02 0.0000000000000000e+00 -8.3700125408588733e-02 6.7317454956176137e-03 0.0000000000000000e+00 0.0000000000000000e+00 0.0000000000000000e+00 0.0000000000000000e+00  1.0041014738551697e+00 -8.3728380903815167e-02 0.0000000000000000e+00 -8.3728380903815167e-02 5.9711411461965784e-03 0.0000000000000000e+00 0.0000000000000000e+00 0.0000000000000000e+00 0.0000000000000000e+00  9.9991480733871474e-01 -8.3783805991943544e-02 0.0000000000000000e+00 -8.3783805991943544e-02 5.2774371889835600e-03 0.0000000000000000e+00 0.0000000000000000e+00 0.0000000000000000e+00 0.0000000000000000e+00  9.9553669904582565e-01 -8.3760363166527976e-02 0.0000000000000000e+00 -8.3760363166527976e-02 4.5276742070533430e-03 0.0000000000000000e+00 0.0000000000000000e+00 0.0000000000000000e+00 0.0000000000000000e+00  9.9110544601284745e-01 -8.3739141991854352e-02 0.0000000000000000e+00 -8.3739141991854352e-02 3.7779250352218134e-03 0.0000000000000000e+00 0.0000000000000000e+00 0.0000000000000000e+00 0.0000000000000000e+00  9.8698390256622381e-01 -8.3712957376767205e-02 0.0000000000000000e+00 -8.3712957376767205e-02 3.0661841282834715e-03 0.0000000000000000e+00 0.0000000000000000e+00 0.0000000000000000e+00 0.0000000000000000e+00  9.8235134249603329e-01 -8.3559056898740755e-02 0.0000000000000000e+00 -8.3559056898740755e-02 2.2480746602421011e-03 0.0000000000000000e+00 0.0000000000000000e+00 0.0000000000000000e+00 0.0000000000000000e+00  9.7826400856165674e-01 -8.3410561099064820e-02 0.0000000000000000e+00 -8.3410561099064820e-02 1.5037646006709282e-03 0.0000000000000000e+00 0.0000000000000000e+00 0.0000000000000000e+00 0.0000000000000000e+00  9.7375126423564540e-01 -8.3316784524292004e-02 0.0000000000000000e+00 -8.3316784524292004e-02 7.4749505244899679e-04 0.0000000000000000e+00 0.