<?xml version="1.0"?>
<VTKFile type="UnstructuredGrid"  version="0.1"  >
<UnstructuredGrid>
<Piece  NumberOfPoints="4265" NumberOfCells="6746">
<Points>
<DataArray  type="Float64"  NumberOfComponents="3"  format="ascii">0 0.01 0  10 0.01 0  0 1.030624186909793 0  10 1.030624186909793 0  0.007129524987038337 0.009997491741717768 0  0.01258064459049757 0.00999219056738478 0  0.01872173241756402 0.009982708334120727 0  0.02429919625640796 0.009970876572043954 0  0.03017238705920286 0.009955108531615313 0  0.03612352734296466 0.0099356743715591 0  0.04164979236492252 0.009914517792428084 0  0.04780928449023854 0.009887415768096998 0  0.05327287671237849 0.009860276931383746 0  0.0593436395885565 0.009826715421083503 0  0.06505608699933001 0.009791870631895848 0  0.07077243060783153 0.009753845329312128 0  0.07684085351634186 0.009710036052663748 0  0.08230528612367993 0.009667566921662384 0  0.08846525752759338 0.009616276826848907 0  0.09398926586603956 0.0095672187064786 0  0.09994377871281757 0.009511110804477986 0  0.10581288515308 0.009452550633355501 0  0.1113930001121819 0.009393893683773193 0  0.1175326299024069 0.009326020378011352 0  0.122983161250664 0.009262856809916281 0  0.1290978349347763 0.009188765415777931 0  0.1347300222736412 0.00911751981665075 0  0.1405327472005438 0.009041131768776852 0  0.1465421455697866 0.008958856277281909 0  0.1520341809431761 0.008880870879718691 0  0.1581991754706344 0.00879018143976357 0  0.1636834803794234 0.008706732874359017 0  0.1697073563005918 0.008612096527554045 0  0.1754901396361989 0.008518345936558386 0  0.1811391035120075 0.008424050210098115 0  0.1872444279222087 0.00831915423323064 0  0.1926961446341008 0.008222899998379215 0  0.198841090009393 0.008111516418624823 0  0.2044064770158165 0.008008028244452866 0  0.2102948627703611 0.007895869216798803 0  0.2162299794791283 0.007780085801116003 0  0.2217647046821167 0.007669675498109103 0  0.2279204403470532 0.007544154739747676 0  0.2333791472114919 0.007430485124751003 0  0.2394590817234977 0.0073013084386626 0  0.245152498789355 0.007177928079207972 0  0.2508861115607116 0.007051356111670669 0  0.2569419868439766 0.006915186417023598 0  0.2624099649457279 0.006790084113692359 0  0.2685711825796066 0.006646722567663751 0  0.274083748205357 0.006516341894728842 0  0.2800541704182985 0.00637292855786236 0  0.2859022845836161 0.006230279166502627 0  0.291495955429921 0.006091868246150131 0  0.2976275706217687 0.005937986548763313 0  0.3030757324287757 0.005799406374294222 0  0.3091980118239236 0.005641654227187252 0  0.3148109405089491 0.005495191514879527 0  0.3206341933715942 0.005341435282378838 0  0.3266248575896781 0.005181393525330103 0  0.3321252080346692 0.005032833254881577 0  0.3382880718234609 0.004864596209960478 0  0.3437628463580178 0.004713611578807419 0  0.3498021006600692 0.004545443593512952 0  0.3555594631656461 0.004383601001460968 0  0.3612291099056053 0.004222822711549606 0  0.3673210805066339 0.004048576418709386 0  0.3727746135437823 0.003891330909934085 0  0.3789246700786391 0.003712634483246944 0  0.3844721023230384 0.00355025746928806 0  0.3903845048135511 0.003376011435332509 0  0.3962935688476314 0.003200699755406988 0  0.4018430601204535 0.00303505085978487 0  0.4079921977692303 0.002850427660455144 0  0.4134449905916002 0.002685819499171436 0  0.4195385366679084 0.002500937932218923 0  0.425204482428441 0.002328206591247292 0  0.4309651825948974 0.00215183074136113 0  0.4370014133195289 0.001966263547608745 0  0.4424769325836848 0.00179732019881714 0  0.4486395183564056 0.001606544730410899 0  0.4541373275735043 0.001435838569361521 0  0.4601308451156257 0.001249254088784412 0  0.4659488863550298 0.001067707976620331 0  0.471564807260988 0.0008921302908496037 0  0.4776843759254726 0.0007004920228137959 0  0.4831317484445766 0.0005296836585198918 0  0.4892643513384632 0.0003372062279158936 0  0.4948528283485032 0.000161696161435303 0  0.5007056813361916 -2.216943068070812e-05 0  0.5066699093509902 -0.000209526046556915 0  0.5121845298566023 -0.0003826949545447442 0  0.5183439831944545 -0.0005759742926309219 0  0.5238088617282698 -0.0007472800272428554 0  0.5298681543527348 -0.0009369594486414562 0  0.5355929349139432 -0.001115856450691032 0  0.5412927239341832 -0.001293613669039852 0  0.5473668732672543 -0.001482588207084091 0  0.5528259073001393 -0.001651967505962102 0  0.5589819336317072 -0.001842386787779294 0  0.5645100189486582 -0.002012797049529044 0  0.5704524332663232 -0.002195301346534757 0  0.5763298911552834 -0.002375058665203144 0  0.5819006708717119 -0.002544689651648297 0  0.5880413281562127 -0.002730768313747055 0  0.5934904284812221 -0.002895042191696308 0  0.5995995320960693 -0.003078202338538874 0  0.605236779888003 -0.003246210954182579 0  0.6110299855290301 -0.003417806240976177 0  0.6170432999212266 -0.00359472323302265 0  0.6225307972792151 -0.00375505261922207 0  0.6286944373476531 -0.003933803567825084 0  0.6341794289295242 -0.004091634709336539 0  0.6401977648984302 -0.004263413669385436 0  0.6459846030577213 -0.004427148756161272 0  0.6516277670629291 -0.004585409549508515 0  0.6577342305863492 -0.004755038487876419 0  0.6631843111407589 -0.004904958327357115 0  0.6693271588517591 -0.005072208653571043 0  0.6748942591145469 -0.005222152905474348 0  0.6807781354428797 -0.005378892074409919 0  0.6867158102497221 -0.005535201343768038 0  0.6922478556369909 -0.005679100421160843 0  0.6984036264198542 -0.005837205328254034 0  0.7038624132928571 -0.005975584427524931 0  0.7099402809449575 -0.006127588021236129 0  0.7156361945945205 -0.006268012368771779 0  0.7213667017809595 -0.006407263887957157 0  0.7274241898103784 -0.006552202568912044 0  0.7328913375361901 -0.006680980644346233 0  0.7390522654079078 -0.006823736587757829 0  0.7445663161830813 -0.006949337256267011 0  0.7505345306161221 -0.007082931996795786 0  0.7563856967966242 -0.007211490056377221 0  0.7619775509571868 -0.007332073958440476 0  0.7681106054434813 -0.007461725199742056 0  0.7735594228940573 -0.007574589702563127 0  0.7796809699364847 -0.007698739982391196 0  0.7852974086111042 -0.007810142587226769 0  0.7911178568436495 -0.007923025648348906 0  0.797112403703894 -0.008036515862006795 0  0.8026119630288198 -0.008138129173272899 0  0.8087760180262171 -0.008249131188213875 0  0.814253500572072 -0.008345174877796967 0  0.8202905515677629 -0.008448166667805387 0  0.8260544286221699 -0.008543663134562481 0  0.831720415905675 -0.008634807324656511 0  0.8378167080097026 -0.008729817306667463 0  0.8432709709919499 -0.008812108559864256 0  0.8494209576248264 -0.008901791974276371 0  0.8549745826348545 -0.008979924427376591 0  0.8608814329347291 -0.009060026011188804 0  0.8667998142885592 -0.009137155111096256 0  0.8723460990452367 -0.009206568509458774 0  0.8784989383774584 -0.009280301817794542 0  0.8839552890388401 -0.009342788637451834 0  0.8900456692707091 -0.009409293585850673 0  0.8957233874467343 -0.009468190513990782 0  0.9014754209053449 -0.009524786393944277 0  0.9075213579987256 -0.009580921173179099 0  0.9129954731058688 -0.009628765913494807 0  0.9191593188847452 -0.009679229788646495 0  0.9246655330424429 -0.009721240864333262 0  0.9306503084472221 -0.009763603884533442 0  0.9364847200361547 -0.009801580348484516 0  0.9420914259676206 -0.009834972127394636 0  0.948219177636862 -0.009867976960504428 0  0.9536688877131657 -0.009894257783109666 0  0.9597979104438458 -0.009920349306153329 0  0.9654020314719589 -0.009940987600901847 0  0.9712398170272581 -0.009959209624459757 0  0.9772219132298864 -0.009974407121723252 0  0.9827297975109929 -0.009985285083248089 0  0.9888934840407251 -0.009993913310034224 0  0.9943667421923366 -0.009998434045983932 0  1.000414962337846 -0.009999991502249178 0  1.00616395254491 -0.009998125110441144 0  1.011844857354635 -0.009993077234903055 0  1.017933801412069 -0.009984132829796667 0  1.023390946643176 -0.00997301205183276 0  1.029544679732296 -0.009956955598792184 0  1.035089558108845 -0.009939300412459717 0  1.041010936359372 -0.009917116481575694 0  1.04691554237944 -0.00989157814857561 0  1.052471258615448 -0.009864440751261633 0  1.05862104751389 -0.009830897850136421 0  1.064075481579663 -0.009798076706746352 0  1.070173358231585 -0.009757978136698224 0  1.075837941143087 -0.00971752009646258 0  1.081604377355612 -0.009673173917302162 0  1.087640686528322 -0.009623351755525641 0  1.093119387704205 -0.009575135453199036 0  1.099284093826516 -0.009517491101966447 0  1.104783734376909 -0.009463052176492596 0  1.110779897618174 -0.009400480030121557 0  1.116599992234411 -0.00933655469875222 0  1.122217899723542 -0.009271889359757672 0  1.128339818747432 -0.009198135031144493 0  1.133789446190431 -0.00912961705214143 0  1.139923317158062 -0.009049295973540348 0  1.145515844317945 -0.008973134373133167 0  1.151367773813766 -0.008890475161473248 0  1.157336906671575 -0.008803064948780913 0  1.16285160438384 -0.008719557366803981 0  1.16901331600552 -0.008623157866544266 0  1.174481522907442 -0.00853490108265173 0  1.180539122189597 -0.008434191931863186 0  1.186271617394136 -0.008336073959344166 0  1.191966996821913 -0.008235914041393521 0  1.198046448076202 -0.008126091334838595 0  1.203505695906331 -0.008024945109277802 0  1.209661806077474 -0.007908057515838151 0  1.21519584913737 -0.007800455577732041 0  1.221132109188887 -0.00768241304184519 0  1.227019087412133 -0.007562711583992629 0  1.232585135446325 -0.007447155722966398 0  1.238729389023077 -0.007316953404904543 0  1.244180486899644 -0.007199156086382225 0  1.250286093435722 -0.007064709646262071 0  1.255932842016573 -0.006938052500145445 0  1.261716857103797 -0.006806053534187844 0  1.26773845151126 -0.006666245775332091 0  1.273222687278595 -0.006536836953056475 0  1.279386853652711 -0.00638906998029936 0  1.284876650734994 -0.006255450389977176 0  1.290887326898431 -0.00610702037198264 0  1.296685536664392 -0.00596177282270944 0  1.30231949087952 -0.005818744638503708 0  1.308431215520824
[...]
<PointData  Tensors="Total Stress"> 
<DataArray  type="Float64"  Name="Total Stress"  NumberOfComponents="9" format="ascii">1.2149106474603792e+00 2.9965352704621015e-05 0.0000000000000000e+00 2.9965352704620906e-05 2.3464298345915898e-02 0.0000000000000000e+00 0.0000000000000000e+00 0.0000000000000000e+00 0.0000000000000000e+00  1.2149106474603792e+00 2.9965352704621015e-05 0.0000000000000000e+00 2.9965352704620906e-05 2.3464298345915898e-02 0.0000000000000000e+00 0.0000000000000000e+00 0.0000000000000000e+00 0.0000000000000000e+00  7.6786703928897726e-01 -4.2820705240234660e-05 0.0000000000000000e+00 -4.2820705240234673e-05 -4.5619455426761848e-03 0.0000000000000000e+00 0.0000000000000000e+00 0.0000000000000000e+00 0.0000000000000000e+00  7.6786703928897726e-01 -4.2820705240234660e-05 0.0000000000000000e+00 -4.2820705240234673e-05 -4.5619455426761848e-03 0.0000000000000000e+00 0.0000000000000000e+00 0.0000000000000000e+00 0.0000000000000000e+00  1.2148555858228436e+00 -1.6122908138862422e-03 0.0000000000000000e+00 -1.6122908138862420e-03 2.3385674870346349e-02 0.0000000000000000e+00 0.0000000000000000e+00 0.0000000000000000e+00 0.0000000000000000e+00  1.2147475294742707e+00 -2.9300070347549464e-03 0.0000000000000000e+00 -2.9300070347549464e-03 2.3365266738967543e-02 0.0000000000000000e+00 0.0000000000000000e+00 0.0000000000000000e+00 0.0000000000000000e+00  1.2145613360990910e+00 -4.3029805001144018e-03 0.0000000000000000e+00 -4.3029805001144018e-03 2.3382498980418678e-02 0.0000000000000000e+00 0.0000000000000000e+00 0.0000000000000000e+00 0.0000000000000000e+00  1.2142966933172599e+00 -5.6400611006949316e-03 0.0000000000000000e+00 -5.6400611006949316e-03 2.3342262840693337e-02 0.0000000000000000e+00 0.0000000000000000e+00 0.0000000000000000e+00 0.0000000000000000e+00  1.2140019021835102e+00 -7.0026143042327352e-03 0.0000000000000000e+00 -7.0026143042327352e-03 2.3369021181125459e-02 0.0000000000000000e+00 0.0000000000000000e+00 0.0000000000000000e+00 0.0000000000000000e+00  1.2134976547814025e+00 -8.3769684797592083e-03 0.0000000000000000e+00 -8.3769684797592083e-03 2.3204653616333209e-02 0.0000000000000000e+00 0.0000000000000000e+00 0.0000000000000000e+00 0.0000000000000000e+00  1.2131297683956255e+00 -9.6645961952349178e-03 0.0000000000000000e+00 -9.6645961952349178e-03 2.3292396975820032e-02 0.0000000000000000e+00 0.0000000000000000e+00 0.0000000000000000e+00 0.0000000000000000e+00  1.2125155794720861e+00 -1.1033803757174897e-02 0.0000000000000000e+00 -1.1033803757174897e-02 2.3257455338969963e-02 0.0000000000000000e+00 0.0000000000000000e+00 0.0000000000000000e+00 0.0000000000000000e+00  1.2119265239817212e+00 -1.2350937169869628e-02 0.0000000000000000e+00 -1.2350937169869628e-02 2.3198548074431138e-02 0.0000000000000000e+00 0.0000000000000000e+00 0.0000000000000000e+00 0.0000000000000000e+00  1.2112596504690885e+00 -1.3751637875083562e-02 0.0000000000000000e+00 -1.3751637875083562e-02 2.3184519677943254e-02 0.0000000000000000e+00 0.0000000000000000e+00 0.0000000000000000e+00 0.0000000000000000e+00  1.2104301326377078e+00 -1.5028299511074107e-02 0.0000000000000000e+00 -1.5028299511074107e-02 2.3024095754294923e-02 0.0000000000000000e+00 0.0000000000000000e+00 0.0000000000000000e+00 0.0000000000000000e+00  1.2097790794170225e+00 -1.6293946627198082e-02 0.0000000000000000e+00 -1.6293946627198082e-02 2.3122920478828819e-02 0.0000000000000000e+00 0.0000000000000000e+00 0.0000000000000000e+00 0.0000000000000000e+00  1.2087051576338761e+00 -1.7719704186375043e-02 0.0000000000000000e+00 -1.7719704186375043e-02 2.2907257919481911e-02 0.0000000000000000e+00 0.0000000000000000e+00 0.0000000000000000e+00 0.0000000000000000e+00  1.2079029563376513e+00 -1.8999562848636509e-02 0.0000000000000000e+00 -1.8999562848636506e-02 2.2945932844582493e-02 0.0000000000000000e+00 0.0000000000000000e+00 0.0000000000000000e+00 0.0000000000000000e+00  1.2067053675072452e+00 -2.0366377982807198e-02 0.0000000000000000e+00 -2.0366377982807198e-02 2.2833309688568195e-02 0.0000000000000000e+00 0.0000000000000000e+00 0.0000000000000000e+00 0.0000000000000000e+00  1.2056099307788597e+00 -2.1635801400719995e-02 0.0000000000000000e+00 -2.1635801400719995e-02 2.2752693550022879e-02 0.0000000000000000e+00 0.0000000000000000e+00 0.0000000000000000e+00 0.0000000000000000e+00  1.2044291815953339e+00 -2.2975241278386696e-02 0.0000000000000000e+00 -2.2975241278386696e-02 2.2669048020329877e-02 0.0000000000000000e+00 0.0000000000000000e+00 0.0000000000000000e+00 0.0000000000000000e+00  1.2031616189844974e+00 -2.4268975595477919e-02 0.0000000000000000e+00 -2.4268975595477919e-02 2.2568707534557562e-02 0.0000000000000000e+00 0.0000000000000000e+00 0.0000000000000000e+00 0.0000000000000000e+00  1.2018728289609077e+00 -2.5509935957581869e-02 0.0000000000000000e+00 -2.5509935957581869e-02 2.2464021680958172e-02 0.0000000000000000e+00 0.0000000000000000e+00 0.0000000000000000e+00 0.0000000000000000e+00  1.2003851113068920e+00 -2.6847235626885256e-02 0.0000000000000000e+00 -2.6847235626885256e-02 2.2316700590311742e-02 0.0000000000000000e+00 0.0000000000000000e+00 0.0000000000000000e+00 0.0000000000000000e+00  1.1990176560635002e+00 -2.8016373093814145e-02 0.0000000000000000e+00 -2.8016373093814145e-02 2.2220580466467466e-02 0.0000000000000000e+00 0.0000000000000000e+00 0.0000000000000000e+00 0.0000000000000000e+00  1.1974240401028635e+00 -2.9343809252686866e-02 0.0000000000000000e+00 -2.9343809252686866e-02 2.2097584709236371e-02 0.0000000000000000e+00 0.0000000000000000e+00 0.0000000000000000e+00 0.0000000000000000e+00  1.1958522513759891e+00 -3.0510310717438909e-02 0.0000000000000000e+00 -3.0510310717438909e-02 2.1972359798383172e-02 0.0000000000000000e+00 0.0000000000000000e+00 0.0000000000000000e+00 0.0000000000000000e+00  1.1942163555433312e+00 -3.1644804030056900e-02 0.0000000000000000e+00 -3.1644804030056900e-02 2.1873943279940727e-02 0.0000000000000000e+00 0.0000000000000000e+00 0.0000000000000000e+00 0.0000000000000000e+00  1.1923903017027599e+00 -3.2941537114979248e-02 0.0000000000000000e+00 -3.2941537114979248e-02 2.1673712179205058e-02 0.0000000000000000e+00 0.0000000000000000e+00 0.0000000000000000e+00 0.0000000000000000e+00  1.1907774357797305e+00 -3.4069272934827192e-02 0.0000000000000000e+00 -3.4069272934827199e-02 2.1623658166683886e-02 0.0000000000000000e+00 0.0000000000000000e+00 0.0000000000000000e+00 0.0000000000000000e+00  1.1887910568721369e+00 -3.5303599668454491e-02 0.0000000000000000e+00 -3.5303599668454491e-02 2.1479200246301768e-02 0.0000000000000000e+00 0.0000000000000000e+00 0.0000000000000000e+00 0.0000000000000000e+00  1.1869818491418072e+00 -3.6422190116116041e-02 0.0000000000000000e+00 -3.6422190116116041e-02 2.1323458940554110e-02 0.0000000000000000e+00 0.0000000000000000e+00 0.0000000000000000e+00 0.0000000000000000e+00  1.1849846009663376e+00 -3.7628049680874416e-02 0.0000000000000000e+00 -3.7628049680874430e-02 2.1184800324988644e-02 0.0000000000000000e+00 0.0000000000000000e+00 0.0000000000000000e+00 0.0000000000000000e+00  1.1829262103709495e+00 -3.8778968531633470e-02 0.0000000000000000e+00 -3.8778968531633470e-02 2.1022588811345867e-02 0.0000000000000000e+00 0.0000000000000000e+00 0.0000000000000000e+00 0.0000000000000000e+00  1.1809523520725045e+00 -3.9843745054595002e-02 0.0000000000000000e+00 -3.9843745054594974e-02 2.0805208347882211e-02 0.0000000000000000e+00 0.0000000000000000e+00 0.0000000000000000e+00 0.0000000000000000e+00  1.1786232006704485e+00 -4.1016439012421198e-02 0.0000000000000000e+00 -4.1016439012421205e-02 2.0635907605076068e-02 0.0000000000000000e+00 0.0000000000000000e+00 0.0000000000000000e+00 0.0000000000000000e+00  1.1764743288643136e+00 -4.2060911107984697e-02 0.0000000000000000e+00 -4.2060911107984697e-02 2.0409005198334624e-02 0.0000000000000000e+00 0.0000000000000000e+00 0.0000000000000000e+00 0.0000000000000000e+00  1.1742678153609289e+00 -4.3254604857306443e-02 0.0000000000000000e+00 -4.3254604857306443e-02 2.0391579975316675e-02 0.0000000000000000e+00 0.0000000000000000e+00 0.0000000000000000e+00 0.0000000000000000e+00  1.1718810627148473e+00 -4.4293607270521722e-02 0.0000000000000000e+00 -4.4293607270521729e-02 2.0093667228624244e-02 0.0000000000000000e+00 0.0000000000000000e+00 0.0000000000000000e+00 0.0000000000000000e+00  1.1695764722513355e+00 -4.5324807740267890e-02 0.0000000000000000e+00 -4.5324807740267883e-02 2.0056509168989368e-02 0.0000000000000000e+00 0.0000000000000000e+00 0.0000000000000000e+00 0.0000000000000000e+00  1.1670816988908497e+00 -4.6281648575927210e-02 0.0000000000000000e+00 -4.6281648575927210e-02 1.9906702486543845e-02 0.0000000000000000e+00 0.0000000000000000e+00 0.0000000000000000e+00 0.0000000000000000e+00  1.1647284823491428e+00 -4.7311979370191326e-02 0.0000000000000000e+00 -4.7311979370191333e-02 1.9737613508367436e-02 0.0000000000000000e+00 0.0000000000000000e+00 0.0000000000000000e+00 0.0000000000000000e+00  1.1619864397340840e+00 -4.8393542251373795e-02 0.0000000000000000e+00 -4.8393542251373795e-02 1.9546845203224392e-02 0.0000000000000000e+00 0.0000000000000000e+00 0.0000000000000000e+00 0.0000000000000000e+00  1.1596503628006856e+00 -4.9307772164393901e-02 0.0000000000000000e+00 -4.9307772164393901e-02 1.9411832116688642e-02 0.0000000000000000e+00 0.0000000000000000e+00 0.0000000000000000e+00 0.0000000000000000e+00  1.1569788415884394e+00 -5.0278305234316117e-02 0.0000000000000000e+00 -5.0278305234316117e-02 1.9258953065065643e-02 0.0000000000000000e+00 0.0000000000000000e+00 0.0000000000000000e+00 0.0000000000000000e+00  1.1542164289208128e+00 -5.1325816890377289e-02 0.0000000000000000e+00 -5.1325816890377289e-02 1.9006225164779150e-02 0.0000000000000000e+00 0.0000000000000000e+00 0.0000000000000000e+00 0.0000000000000000e+00  1.1515718601527698e+00 -5.2334917137747794e-02 0.0000000000000000e+00 -5.2334917137747794e-02 1.8906422651407458e-02 0.0000000000000000e+00 0.0000000000000000e+00 0.0000000000000000e+00 0.0000000000000000e+00  1.1485429048570237e+00 -5.3276739986408035e-02 0.0000000000000000e+00 -5.3276739986408035e-02 1.8606565163483267e-02 0.0000000000000000e+00 0.0000000000000000e+00 0.0000000000000000e+00 0.0000000000000000e+00  1.1458971069839075e+00 -5.4147230869227535e-02 0.0000000000000000e+00 -5.4147230869227535e-02 1.8452230572337209e-02 0.0000000000000000e+00 0.0000000000000000e+00 0.0000000000000000e+00 0.0000000000000000e+00  1.1427432848979131e+00 -5.5117050758293845e-02 0.0000000000000000e+00 -5.5117050758293845e-02 1.8220986742492770e-02 0.0000000000000000e+00 0.0000000000000000e+00 0.0000000000000000e+00 0.0000000000000000e+00  1.1399641606520379e+00 -5.5950906303022109e-02 0.0000000000000000e+00 -5.5950906303022109e-02 1.8007857525214308e-02 0.0000000000000000e+00 0.0000000000000000e+00 0.0000000000000000e+00 0.0000000000000000e+00  1.1368910753149262e+00 -5.6819152202892478e-02 0.0000000000000000e+00 -5.6819152202892478e-02 1.7788177085291946e-02 0.0000000000000000e+00 0.0000000000000000e+00 0.0000000000000000e+00 0.0000000000000000e+00  1.1337799245324041e+00 -5.7679475271399237e-02 0.0000000000000000e+00 -5.7679475271399237e-02 1.7510506003943202e-02 0.0000000000000000e+00 0.0000000000000000e+00 0.0000000000000000e+00 0.0000000000000000e+00  1.1307710511443081e+00 -5.8483463647680221e-02 0.0000000000000000e+00 -5.8483463647680221e-02 1.7263818491978406e-02 0.0000000000000000e+00 0.0000000000000000e+00 0.0000000000000000e+00 0.0000000000000000e+00  1.1274092406782306e+00 -5.9304106660866510e-02 0.0000000000000000e+00 -5.9304106660866510e-02 1.6966059241499729e-02 0.0000000000000000e+00 0.0000000000000000e+00 0.0000000000000000e+00 0.0000000000000000e+00  1.1243531625490897e+00 -6.0037807982406780e-02 0.0000000000000000e+00 -6.0037807982406793e-02 1.6666207819742773e-02 0.0000000000000000e+00 0.0000000000000000e+00 0.0000000000000000e+00 0.0000000000000000e+00  1.1210619814059852e+00 -6.0852299349930104e-02 0.0000000000000000e+00 -6.0852299349930090e-02 1.6418725214886670e-02 0.0000000000000000e+00 0.0000000000000000e+00 0.0000000000000000e+00 0.0000000000000000e+00  1.1178219538715275e+00 -6.1545076953490603e-02 0.0000000000000000e+00 -6.1545076953490610e-02 1.6122387580150895e-02 0.0000000000000000e+00 0.0000000000000000e+00 0.0000000000000000e+00 0.0000000000000000e+00  1.1145933498439482e+00 -6.2288855062333830e-02 0.0000000000000000e+00 -6.2288855062333830e-02 1.5953278279068384e-02 0.0000000000000000e+00 0.0000000000000000e+00 0.0000000000000000e+00 0.0000000000000000e+00  1.1110570114263680e+00 -6.2916671608439723e-02 0.0000000000000000e+00 -6.2916671608439723e-02 1.5643539903519167e-02 0.0000000000000000e+00 0.0000000000000000e+00 0.0000000000000000e+00 0.0000000000000000e+00  1.1079212434828252e+00 -6.3539648281526417e-02 0.0000000000000000e+00 -6.3539648281526417e-02 1.5486950668211484e-02 0.0000000000000000e+00 0.0000000000000000e+00 0.0000000000000000e+00 0.0000000000000000e+00  1.1042403653328039e+00 -6.4222019892349033e-02 0.0000000000000000e+00 -6.4222019892349033e-02 1.5198100919477835e-02 0.0000000000000000e+00 0.0000000000000000e+00 0.0000000000000000e+00 0.0000000000000000e+00  1.1009778241007411e+00 -6.4897060032030815e-02 0.0000000000000000e+00 -6.4897060032030815e-02 1.4890847581429301e-02 0.0000000000000000e+00 0.0000000000000000e+00 0.0000000000000000e+00 0.0000000000000000e+00  1.0973447479597529e+00 -6.5602485076156805e-02 0.0000000000000000e+00 -6.5602485076156805e-02 1.4583579869887120e-02 0.0000000000000000e+00 0.0000000000000000e+00 0.0000000000000000e+00 0.0000000000000000e+00  1.0937490692685050e+00 -6.6196102401839665e-02 0.0000000000000000e+00 -6.6196102401839665e-02 1.4201161070982626e-02 0.0000000000000000e+00 0.0000000000000000e+00 0.0000000000000000e+00 0.0000000000000000e+00  1.0902475297599001e+00 -6.6789515842422570e-02 0.0000000000000000e+00 -6.6789515842422570e-02 1.3907974233982779e-02 0.0000000000000000e+00 0.0000000000000000e+00 0.0000000000000000e+00 0.0000000000000000e+00  1.0863623204258750e+00 -6.7364378432717226e-02 0.0000000000000000e+00 -6.7364378432717226e-02 1.3515145783338421e-02 0.0000000000000000e+00 0.0000000000000000e+00 0.0000000000000000e+00 0.0000000000000000e+00  1.0829179590646043e+00 -6.7825693067816620e-02 0.0000000000000000e+00 -6.7825693067816634e-02 1.3068808901281230e-02 0.0000000000000000e+00 0.0000000000000000e+00 0.0000000000000000e+00 0.0000000000000000e+00  1.0788935080873689e+00 -6.8318718672940329e-02 0.0000000000000000e+00 -6.8318718672940329e-02 1.2746481135211082e-02 0.0000000000000000e+00 0.0000000000000000e+00 0.0000000000000000e+00 0.0000000000000000e+00  1.0753775218558863e+00 -6.8743193673078129e-02 0.0000000000000000e+00 -6.8743193673078129e-02 1.2394200606136170e-02 0.0000000000000000e+00 0.0000000000000000e+00 0.0000000000000000e+00 0.0000000000000000e+00  1.0716499764351053e+00 -6.9252155538328933e-02 0.0000000000000000e+00 -6.9252155538328933e-02 1.2062406479995909e-02 0.0000000000000000e+00 0.0000000000000000e+00 0.0000000000000000e+00 0.0000000000000000e+00  1.0678080414653062e+00 -6.9571084777441672e-02 0.0000000000000000e+00 -6.9571084777441672e-02 1.1794928150995785e-02 0.0000000000000000e+00 0.0000000000000000e+00 0.0000000000000000e+00 0.0000000000000000e+00  1.0640861383646114e+00 -6.9865578308911588e-02 0.0000000000000000e+00 -6.9865578308911588e-02 1.1515415097771356e-02 0.0000000000000000e+00 0.0000000000000000e+00 0.0000000000000000e+00 0.0000000000000000e+00  1.0601842312705350e+00 -7.0378424415757354e-02 0.0000000000000000e+00 -7.0378424415757354e-02 1.1144532678302656e-02 0.0000000000000000e+00 0.0000000000000000e+00 0.0000000000000000e+00 0.0000000000000000e+00  1.0565131857725059e+00 -7.0670084212436118e-02 0.0000000000000000e+00 -7.0670084212436118e-02 1.0738830670271675e-02 0.0000000000000000e+00 0.0000000000000000e+00 0.0000000000000000e+00 0.0000000000000000e+00  1.0526442684996005e+00 -7.1128580116336021e-02 0.0000000000000000e+00 -7.1128580116336035e-02 1.0481171618177644e-02 0.0000000000000000e+00 0.0000000000000000e+00 0.0000000000000000e+00 0.0000000000000000e+00  1.0488244028701912e+00 -7.1566548452690684e-02 0.0000000000000000e+00 -7.1566548452690698e-02 9.9281945907073784e-03 0.0000000000000000e+00 0.0000000000000000e+00 0.0000000000000000e+00 0.0000000000000000e+00  1.0449528734915718e+00 -7.1895875292196376e-02 0.0000000000000000e+00 -7.1895875292196390e-02 9.5522592981402022e-03 0.0000000000000000e+00 0.0000000000000000e+00 0.0000000000000000e+00 0.0000000000000000e+00  1.0407261080803445e+00 -7.2050816337452361e-02 0.0000000000000000e+00 -7.2050816337452361e-02 9.1203102899833095e-03 0.0000000000000000e+00 0.0000000000000000e+00 0.0000000000000000e+00 0.0000000000000000e+00  1.0369635464479066e+00 -7.2239705158440179e-02 0.0000000000000000e+00 -7.2239705158440179e-02 8.6635660043317565e-03 0.0000000000000000e+00 0.0000000000000000e+00 0.0000000000000000e+00 0.0000000000000000e+00  1.0327734913293485e+00 -7.2425216959856778e-02 0.0000000000000000e+00 -7.2425216959856792e-02 8.2192226386505456e-03 0.0000000000000000e+00 0.0000000000000000e+00 0.0000000000000000e+00 0.0000000000000000e+00  1.0289023545966036e+00 -7.2652641157042647e-02 0.0000000000000000e+00 -7.2652641157042647e-02 7.7904222853808578e-03 0.0000000000000000e+00 0.0000000000000000e+00 0.0000000000000000e+00 0.0000000000000000e+00  1.0247723245049969e+00 -7.2803856170268730e-02 0.0000000000000000e+00 -7.2803856170268730e-02 7.3472485185824823e-03 0.0000000000000000e+00 0.0000000000000000e+00 0.0000000000000000e+00 0.0000000000000000e+00  1.0207528428923731e+00 -7.2931075324100092e-02 0.0000000000000000e+00 -7.2931075324100092e-02 6.8981042034340131e-03 0.0000000000000000e+00 0.0000000000000000e+00 0.0000000000000000e+00 0.0000000000000000e+00  1.0168771050876533e+00 -7.3057392362828349e-02 0.0000000000000000e+00 -7.3057392362828349e-02 6.4979511334021757e-03 0.0000000000000000e+00 0.0000000000000000e+00 0.0000000000000000e+00 0.0000000000000000e+00  1.0126291477249376e+00 -7.3140443195255186e-02 0.0000000000000000e+00 -7.3140443195255186e-02 6.0234240208236599e-03 0.0000000000000000e+00 0.0000000000000000e+00 0.0000000000000000e+00 0.0000000000000000e+00  1.0088500872570751e+00 -7.3202350015060993e-02 0.0000000000000000e+00 -7.3202350015060993e-02 5.6076318317853638e-03 0.0000000000000000e+00 0.0000000000000000e+00 0.0000000000000000e+00 0.0000000000000000e+00  1.0045640596384298e+00 -7.3224614422903372e-02 0.0000000000000000e+00 -7.3224614422903372e-02 5.1082181020674243e-03 0.0000000000000000e+00 0.0000000000000000e+00 0.0000000000000000e+00 0.0000000000000000e+00  1.0006307828829104e+00 -7.3247859518311143e-02 0.0000000000000000e+00 -7.3247859518311143e-02 4.6794201415863044e-03 0.0000000000000000e+00 0.0000000000000000e+00 0.0000000000000000e+00 0.0000000000000000e+00  9.9653890858980421e-01 -7.3235433140538861e-02 0.0000000000000000e+00 -7.3235433140538861e-02 4.2044114174992001e-03 0.0000000000000000e+00 0.0000000000000000e+00 0.0000000000000000e+00 0.0000000000000000e+00  9.9238766832614678e-01 -7.3201390524931187e-02 0.0000000000000000e+00 -7.3201390524931187e-02 3.7402995004660426e-03 0.0000000000000000e+00 0.0000000000000000e+00 0.0000000000000000e+00 0.0000000000000000e+00  9.8854400691555699e-01 -7.3162804372187140e-02 0.0000000000000000e+00 -7.3162804372187140e-02 3.2894191599205360e-03 0.0000000000000000e+00 0.0000000000000000e+00 0.0000000000000000e+00 0.0000000000000000e+00  9.8424353775608175e-01 -7.3064195793880515e-02 0.0000000000000000e+00 -7.3064195793880501e-02 2.8021702151742631e-03 0.0000000000000000e+00 0.0000000000000000e+00 0.0000000000000000e+00 0.0000000000000000e+00  9.8041782666317756e-01 -7.2961773049828704e-02 0.0000000000000000e+00 -7.2961773049828718e-02 2.3667651911664874e-03 0.0000000000000000e+00 0.0000000000000000e+00 0.0000000000000000e+00 0.0000000000000000e+00  9.7614270742405784e-01 -7.2841647794611206e-02 0.0000000000000000e+00 -7.2841647794611192e-02 1.8828784007657476e-03 0.0000000000000000e+0