<?xml version="1.0"?>
<VTKFile type="UnstructuredGrid"  version="0.1"  >
<UnstructuredGrid>
<Piece  NumberOfPoints="4266" NumberOfCells="6748">
<Points>
<DataArray  type="Float64"  NumberOfComponents="3"  format="ascii">0 0.01 0  10 0.01 0  0 1.012129576756052 0  10 1.012129576756052 0  0.007129524987038337 0.009997491741717768 0  0.01258064459049757 0.00999219056738478 0  0.01872173241756402 0.009982708334120727 0  0.02429919625640796 0.009970876572043954 0  0.03017238705920286 0.009955108531615313 0  0.03612352734296466 0.0099356743715591 0  0.04164979236492252 0.009914517792428084 0  0.04780928449023854 0.009887415768096998 0  0.05327287671237849 0.009860276931383746 0  0.0593436395885565 0.009826715421083503 0  0.06505608699933001 0.009791870631895848 0  0.07077243060783153 0.009753845329312128 0  0.07684085351634186 0.009710036052663748 0  0.08230528612367993 0.009667566921662384 0  0.08846525752759338 0.009616276826848907 0  0.09398926586603956 0.0095672187064786 0  0.09994377871281757 0.009511110804477986 0  0.10581288515308 0.009452550633355501 0  0.1113930001121819 0.009393893683773193 0  0.1175326299024069 0.009326020378011352 0  0.122983161250664 0.009262856809916281 0  0.1290978349347763 0.009188765415777931 0  0.1347300222736412 0.00911751981665075 0  0.1405327472005438 0.009041131768776852 0  0.1465421455697866 0.008958856277281909 0  0.1520341809431761 0.008880870879718691 0  0.1581991754706344 0.00879018143976357 0  0.1636834803794234 0.008706732874359017 0  0.1697073563005918 0.008612096527554045 0  0.1754901396361989 0.008518345936558386 0  0.1811391035120075 0.008424050210098115 0  0.1872444279222087 0.00831915423323064 0  0.1926961446341008 0.008222899998379215 0  0.198841090009393 0.008111516418624823 0  0.2044064770158165 0.008008028244452866 0  0.2102948627703611 0.007895869216798803 0  0.2162299794791283 0.007780085801116003 0  0.2217647046821167 0.007669675498109103 0  0.2279204403470532 0.007544154739747676 0  0.2333791472114919 0.007430485124751003 0  0.2394590817234977 0.0073013084386626 0  0.245152498789355 0.007177928079207972 0  0.2508861115607116 0.007051356111670669 0  0.2569419868439766 0.006915186417023598 0  0.2624099649457279 0.006790084113692359 0  0.2685711825796066 0.006646722567663751 0  0.274083748205357 0.006516341894728842 0  0.2800541704182985 0.00637292855786236 0  0.2859022845836161 0.006230279166502627 0  0.291495955429921 0.006091868246150131 0  0.2976275706217687 0.005937986548763313 0  0.3030757324287757 0.005799406374294222 0  0.3091980118239236 0.005641654227187252 0  0.3148109405089491 0.005495191514879527 0  0.3206341933715942 0.005341435282378838 0  0.3266248575896781 0.005181393525330103 0  0.3321252080346692 0.005032833254881577 0  0.3382880718234609 0.004864596209960478 0  0.3437628463580178 0.004713611578807419 0  0.3498021006600692 0.004545443593512952 0  0.3555594631656461 0.004383601001460968 0  0.3612291099056053 0.004222822711549606 0  0.3673210805066339 0.004048576418709386 0  0.3727746135437823 0.003891330909934085 0  0.3789246700786391 0.003712634483246944 0  0.3844721023230384 0.00355025746928806 0  0.3903845048135511 0.003376011435332509 0  0.3962935688476314 0.003200699755406988 0  0.4018430601204535 0.00303505085978487 0  0.4079921977692303 0.002850427660455144 0  0.4134449905916002 0.002685819499171436 0  0.4195385366679084 0.002500937932218923 0  0.425204482428441 0.002328206591247292 0  0.4309651825948974 0.00215183074136113 0  0.4370014133195289 0.001966263547608745 0  0.4424769325836848 0.00179732019881714 0  0.4486395183564056 0.001606544730410899 0  0.4541373275735043 0.001435838569361521 0  0.4601308451156257 0.001249254088784412 0  0.4659488863550298 0.001067707976620331 0  0.471564807260988 0.0008921302908496037 0  0.4776843759254726 0.0007004920228137959 0  0.4831317484445766 0.0005296836585198918 0  0.4892643513384632 0.0003372062279158936 0  0.4948528283485032 0.000161696161435303 0  0.5007056813361916 -2.216943068070812e-05 0  0.5066699093509902 -0.000209526046556915 0  0.5121845298566023 -0.0003826949545447442 0  0.5183439831944545 -0.0005759742926309219 0  0.5238088617282698 -0.0007472800272428554 0  0.5298681543527348 -0.0009369594486414562 0  0.5355929349139432 -0.001115856450691032 0  0.5412927239341832 -0.001293613669039852 0  0.5473668732672543 -0.001482588207084091 0  0.5528259073001393 -0.001651967505962102 0  0.5589819336317072 -0.001842386787779294 0  0.5645100189486582 -0.002012797049529044 0  0.5704524332663232 -0.002195301346534757 0  0.5763298911552834 -0.002375058665203144 0  0.5819006708717119 -0.002544689651648297 0  0.5880413281562127 -0.002730768313747055 0  0.5934904284812221 -0.002895042191696308 0  0.5995995320960693 -0.003078202338538874 0  0.605236779888003 -0.003246210954182579 0  0.6110299855290301 -0.003417806240976177 0  0.6170432999212266 -0.00359472323302265 0  0.6225307972792151 -0.00375505261922207 0  0.6286944373476531 -0.003933803567825084 0  0.6341794289295242 -0.004091634709336539 0  0.6401977648984302 -0.004263413669385436 0  0.6459846030577213 -0.004427148756161272 0  0.6516277670629291 -0.004585409549508515 0  0.6577342305863492 -0.004755038487876419 0  0.6631843111407589 -0.004904958327357115 0  0.6693271588517591 -0.005072208653571043 0  0.6748942591145469 -0.005222152905474348 0  0.6807781354428797 -0.005378892074409919 0  0.6867158102497221 -0.005535201343768038 0  0.6922478556369909 -0.005679100421160843 0  0.6984036264198542 -0.005837205328254034 0  0.7038624132928571 -0.005975584427524931 0  0.7099402809449575 -0.006127588021236129 0  0.7156361945945205 -0.006268012368771779 0  0.7213667017809595 -0.006407263887957157 0  0.7274241898103784 -0.006552202568912044 0  0.7328913375361901 -0.006680980644346233 0  0.7390522654079078 -0.006823736587757829 0  0.7445663161830813 -0.006949337256267011 0  0.7505345306161221 -0.007082931996795786 0  0.7563856967966242 -0.007211490056377221 0  0.7619775509571868 -0.007332073958440476 0  0.7681106054434813 -0.007461725199742056 0  0.7735594228940573 -0.007574589702563127 0  0.7796809699364847 -0.007698739982391196 0  0.7852974086111042 -0.007810142587226769 0  0.7911178568436495 -0.007923025648348906 0  0.797112403703894 -0.008036515862006795 0  0.8026119630288198 -0.008138129173272899 0  0.8087760180262171 -0.008249131188213875 0  0.814253500572072 -0.008345174877796967 0  0.8202905515677629 -0.008448166667805387 0  0.8260544286221699 -0.008543663134562481 0  0.831720415905675 -0.008634807324656511 0  0.8378167080097026 -0.008729817306667463 0  0.8432709709919499 -0.008812108559864256 0  0.8494209576248264 -0.008901791974276371 0  0.8549745826348545 -0.008979924427376591 0  0.8608814329347291 -0.009060026011188804 0  0.8667998142885592 -0.009137155111096256 0  0.8723460990452367 -0.009206568509458774 0  0.8784989383774584 -0.009280301817794542 0  0.8839552890388401 -0.009342788637451834 0  0.8900456692707091 -0.009409293585850673 0  0.8957233874467343 -0.009468190513990782 0  0.9014754209053449 -0.009524786393944277 0  0.9075213579987256 -0.009580921173179099 0  0.9129954731058688 -0.009628765913494807 0  0.9191593188847452 -0.009679229788646495 0  0.9246655330424429 -0.009721240864333262 0  0.9306503084472221 -0.009763603884533442 0  0.9364847200361547 -0.009801580348484516 0  0.9420914259676206 -0.009834972127394636 0  0.948219177636862 -0.009867976960504428 0  0.9536688877131657 -0.009894257783109666 0  0.9597979104438458 -0.009920349306153329 0  0.9654020314719589 -0.009940987600901847 0  0.9712398170272581 -0.009959209624459757 0  0.9772219132298864 -0.009974407121723252 0  0.9827297975109929 -0.009985285083248089 0  0.9888934840407251 -0.009993913310034224 0  0.9943667421923366 -0.009998434045983932 0  1.000414962337846 -0.009999991502249178 0  1.00616395254491 -0.009998125110441144 0  1.011844857354635 -0.009993077234903055 0  1.017933801412069 -0.009984132829796667 0  1.023390946643176 -0.00997301205183276 0  1.029544679732296 -0.009956955598792184 0  1.035089558108845 -0.009939300412459717 0  1.041010936359372 -0.009917116481575694 0  1.04691554237944 -0.00989157814857561 0  1.052471258615448 -0.009864440751261633 0  1.05862104751389 -0.009830897850136421 0  1.064075481579663 -0.009798076706746352 0  1.070173358231585 -0.009757978136698224 0  1.075837941143087 -0.00971752009646258 0  1.081604377355612 -0.009673173917302162 0  1.087640686528322 -0.009623351755525641 0  1.093119387704205 -0.009575135453199036 0  1.099284093826516 -0.009517491101966447 0  1.104783734376909 -0.009463052176492596 0  1.110779897618174 -0.009400480030121557 0  1.116599992234411 -0.00933655469875222 0  1.122217899723542 -0.009271889359757672 0  1.128339818747432 -0.009198135031144493 0  1.133789446190431 -0.00912961705214143 0  1.139923317158062 -0.009049295973540348 0  1.145515844317945 -0.008973134373133167 0  1.151367773813766 -0.008890475161473248 0  1.157336906671575 -0.008803064948780913 0  1.16285160438384 -0.008719557366803981 0  1.16901331600552 -0.008623157866544266 0  1.174481522907442 -0.00853490108265173 0  1.180539122189597 -0.008434191931863186 0  1.186271617394136 -0.008336073959344166 0  1.191966996821913 -0.008235914041393521 0  1.198046448076202 -0.008126091334838595 0  1.203505695906331 -0.008024945109277802 0  1.209661806077474 -0.007908057515838151 0  1.21519584913737 -0.007800455577732041 0  1.221132109188887 -0.00768241304184519 0  1.227019087412133 -0.007562711583992629 0  1.232585135446325 -0.007447155722966398 0  1.238729389023077 -0.007316953404904543 0  1.244180486899644 -0.007199156086382225 0  1.250286093435722 -0.007064709646262071 0  1.255932842016573 -0.006938052500145445 0  1.261716857103797 -0.006806053534187844 0  1.26773845151126 -0.006666245775332091 0  1.273222687278595 -0.006536836953056475 0  1.279386853652711 -0.00638906998029936 0  1.284876650734994 -0.006255450389977176 0  1.290887326898431 -0.00610702037198264 0  1.296685536664392 -0.00596177282270944 0  1.30231949087952 -0.005818744638503708 0  1.308431215520824
[...]
<PointData  Vectors="Traction"> 
<DataArray  type="Float64"  Name="Traction"  NumberOfComponents="3" format="ascii">-2.8725507208485930e-06 1.4989712804911921e-02 0.0000000000000000e+00  -2.8725507208485930e-06 1.4989712804911921e-02 0.0000000000000000e+00  9.3674134292137659e-09 -1.6522186018253117e-08 0.0000000000000000e+00  9.3674134292137659e-09 -1.6522186018253117e-08 0.0000000000000000e+00  -8.4501334113146859e-04 2.7939544587450842e-02 0.0000000000000000e+00  -1.1262621880728507e-03 2.6237479230345851e-02 0.0000000000000000e+00  -1.2272906456271804e-03 1.9165840874099692e-02 0.0000000000000000e+00  -2.5947292419711172e-03 2.8861079123532963e-02 0.0000000000000000e+00  -1.5857593212754819e-03 1.4285481504051990e-02 0.0000000000000000e+00  -3.8932857704740962e-03 2.8881715666576577e-02 0.0000000000000000e+00  -3.1829082956311467e-03 2.0627578492009239e-02 0.0000000000000000e+00  -3.6522148075383565e-03 2.0299689246864330e-02 0.0000000000000000e+00  -4.0679060330914927e-03 2.0218575234995238e-02 0.0000000000000000e+00  -5.0006908102758754e-03 2.2106317010813774e-02 0.0000000000000000e+00  -5.1720160215674377e-03 2.0862821618171247e-02 0.0000000000000000e+00  -5.4374554222554822e-03 2.0203167215030012e-02 0.0000000000000000e+00  -6.0270971413924476e-03 2.0534008167936945e-02 0.0000000000000000e+00  -8.3943322546422162e-03 2.6654231580427960e-02 0.0000000000000000e+00  -5.6759414295915606e-03 1.6913051444460495e-02 0.0000000000000000e+00  -9.5179874468954220e-03 2.6470985505407107e-02 0.0000000000000000e+00  -5.9632294314771904e-03 1.5587659614710137e-02 0.0000000000000000e+00  -1.0555189996920424e-02 2.5984082027171816e-02 0.0000000000000000e+00  -7.7333607564755817e-03 1.8064801562921375e-02 0.0000000000000000e+00  -8.2645665301451145e-03 1.8120687744102509e-02 0.0000000000000000e+00  -1.1853862775415402e-02 2.4665311794537563e-02 0.0000000000000000e+00  -9.0381441752039760e-03 1.7826126361717681e-02 0.0000000000000000e+00  -8.8456129815848803e-03 1.6535582445335029e-02 0.0000000000000000e+00  -1.1537330072378223e-02 2.0519828022135572e-02 0.0000000000000000e+00  -1.2225091041101348e-02 2.0715364589987781e-02 0.0000000000000000e+00  -1.1320042981275934e-02 1.8414273944755068e-02 0.0000000000000000e+00  -1.1525491598316293e-02 1.7910938458712312e-02 0.0000000000000000e+00  -1.5788084487358481e-02 2.3599754615813533e-02 0.0000000000000000e+00  -1.2151341947846783e-02 1.7491526197337390e-02 0.0000000000000000e+00  -1.2897205799948899e-02 1.7842805430907688e-02 0.0000000000000000e+00  -1.3537917711037566e-02 1.8045443984765548e-02 0.0000000000000000e+00  -1.4165784321230059e-02 1.8043803112887634e-02 0.0000000000000000e+00  -1.3620122707445769e-02 1.6766693240688364e-02 0.0000000000000000e+00  -1.9631524982540421e-02 2.3254228809092215e-02 0.0000000000000000e+00  -1.2768606283682723e-02 1.4711296372606611e-02 0.0000000000000000e+00  -1.6456594593171114e-02 1.8189459196923611e-02 0.0000000000000000e+00  -1.7352706556799033e-02 1.8388923323096051e-02 0.0000000000000000e+00  -1.4979820629356102e-02 1.5358708297369161e-02 0.0000000000000000e+00  -1.7367821598368988e-02 1.7086988444567186e-02 0.0000000000000000e+00  -1.6539670210512621e-02 1.5716715088484545e-02 0.0000000000000000e+00  -1.7605369815951854e-02 1.6198192041827673e-02 0.0000000000000000e+00  -1.7994493549184244e-02 1.5855057475599739e-02 0.0000000000000000e+00  -1.9040473319980895e-02 1.6188108392829904e-02 0.0000000000000000e+00  -1.6782762763377129e-02 1.3784629226625671e-02 0.0000000000000000e+00  -2.4333060038106587e-02 1.9395859512601876e-02 0.0000000000000000e+00  -1.5809925638330193e-02 1.2157066688970397e-02 0.0000000000000000e+00  -2.5943246652450312e-02 1.9101268343908625e-02 0.0000000000000000e+00  -1.5663569659914944e-02 1.1151657475761571e-02 0.0000000000000000e+00  -2.6335984075440608e-02 1.8036212360072232e-02 0.0000000000000000e+00  -1.7548029494889299e-02 1.1628340516359153e-02 0.0000000000000000e+00  -2.3280720909837422e-02 1.4794876722842026e-02 0.0000000000000000e+00  -2.1126814312220743e-02 1.2889527869062013e-02 0.0000000000000000e+00  -2.1645067372027638e-02 1.2684889952801768e-02 0.0000000000000000e+00  -2.3990297410046036e-02 1.3475281587031530e-02 0.0000000000000000e+00  -2.2582454285009438e-02 1.2199560205582575e-02 0.0000000000000000e+00  -2.2575390997993619e-02 1.1708881277017717e-02 0.0000000000000000e+00  -2.4035557125578103e-02 1.1947083747429475e-02 0.0000000000000000e+00  -2.1350802196748019e-02 1.0240435651655630e-02 0.0000000000000000e+00  -3.0422496188909930e-02 1.4018517250121624e-02 0.0000000000000000e+00  -1.8587414023833036e-02 8.2252369382842284e-03 0.0000000000000000e+00  -3.1057986746115308e-02 1.3142992884312360e-02 0.0000000000000000e+00  -2.1349064509747953e-02 8.6742102005795286e-03 0.0000000000000000e+00  -2.3511092288512246e-02 9.0826253678358334e-03 0.0000000000000000e+00  -3.2299078374730825e-02 1.1854689742390134e-02 0.0000000000000000e+00  -2.1482255527512741e-02 7.6306194144394783e-03 0.0000000000000000e+00  -2.3979973074385211e-02 8.1687597957840179e-03 0.0000000000000000e+00  -2.5295259232697671e-02 8.1892991924694177e-03 0.0000000000000000e+00  -2.4727395098455250e-02 7.6891196968503338e-03 0.0000000000000000e+00  -2.5041970014473270e-02 7.3777500602120478e-03 0.0000000000000000e+00  -2.6233603277856284e-02 7.2833667224457407e-03 0.0000000000000000e+00  -3.4372713644244289e-02 8.9831785213438931e-03 0.0000000000000000e+00  -2.4553154039582036e-02 6.1101117078366162e-03 0.0000000000000000e+00  -2.2441819471053111e-02 5.1917122519312322e-03 0.0000000000000000e+00  -3.4344353569933504e-02 7.4451854981666702e-03 0.0000000000000000e+00  -2.4594321543707557e-02 4.9025679708596939e-03 0.0000000000000000e+00  -2.8953207075734129e-02 5.3269166711680076e-03 0.0000000000000000e+00  -2.6319443352882138e-02 4.3999546996111270e-03 0.0000000000000000e+00  -2.7113103699798607e-02 4.1585758475138658e-03 0.0000000000000000e+00  -2.6018694610266364e-02 3.5932466390370017e-03 0.0000000000000000e+00  -3.6109905279819721e-02 4.4283370073831974e-03 0.0000000000000000e+00  -2.2460213970270669e-02 2.4560769452690984e-03 0.0000000000000000e+00  -3.6020678160848037e-02 3.4117746949454296e-03 0.0000000000000000e+00  -2.2224132669907689e-02 1.7739818444296731e-03 0.0000000000000000e+00  -2.8550384093132170e-02 1.8790322777222075e-03 0.0000000000000000e+00  -2.8958672560158254e-02 1.4829269142474968e-03 0.0000000000000000e+00  -2.5775909926633978e-02 9.4841341123967041e-04 0.0000000000000000e+00  -3.5857724205536512e-02 8.3676919751322627e-04 0.0000000000000000e+00  -2.6659336375999289e-02 2.4250358387225960e-04 0.0000000000000000e+00  -2.7322085064976298e-02 -1.5549563431345990e-04 0.0000000000000000e+00  -2.7678410413235752e-02 -5.2949635389486574e-04 0.0000000000000000e+00  -2.8929784807699525e-02 -9.5822387026520605e-04 0.0000000000000000e+00  -2.9330910599466766e-02 -1.3851981148470746e-03 0.0000000000000000e+00  -2.3989070228957080e-02 -1.4701558123725630e-03 0.0000000000000000e+00  -3.5724656450681805e-02 -2.7054097046473550e-03 0.0000000000000000e+00  -2.4570021247278872e-02 -2.1917240187751177e-03 0.0000000000000000e+00  -2.9295550204916081e-02 -3.0228770787205737e-03 0.0000000000000000e+00  -2.9550278043150083e-02 -3.4926455969448546e-03 0.0000000000000000e+00  -2.5768098223654032e-02 -3.4301891100410788e-03 0.0000000000000000e+00  -3.5831609964570202e-02 -5.2581251905816110e-03 0.0000000000000000e+00  -2.5614329070964066e-02 -4.1368102336723162e-03 0.0000000000000000e+00  -2.5497877430338659e-02 -4.5285828139735758e-03 0.0000000000000000e+00  -3.6394697787717124e-02 -6.9788324137573720e-03 0.0000000000000000e+00  -2.2538874290223831e-02 -4.6992834603753917e-03 0.0000000000000000e+00  -3.6077516981383694e-02 -8.0526623534841035e-03 0.0000000000000000e+00  -2.4168996929397384e-02 -5.7752360664237055e-03 0.0000000000000000e+00  -2.9217323482137365e-02 -7.4299521177600726e-03 0.0000000000000000e+00  -2.6297420097099372e-02 -7.1255671875113183e-03 0.0000000000000000e+00  -2.7526366195362785e-02 -7.8933911498834716e-03 0.0000000000000000e+00  -2.8135484466092254e-02 -8.4931214325090001e-03 0.0000000000000000e+00  -2.4758118715084577e-02 -7.9492613795288918e-03 0.0000000000000000e+00  -3.4015352210058948e-02 -1.1482976105326163e-02 0.0000000000000000e+00  -2.5314483768814323e-02 -9.0097456807651573e-03 0.0000000000000000e+00  -2.5585168154773009e-02 -9.5842680659116702e-03 0.0000000000000000e+00  -2.5995716406620694e-02 -1.0196652532436561e-02 0.0000000000000000e+00  -2.6188895535369315e-02 -1.0729306134527213e-02 0.0000000000000000e+00  -2.5470379158043913e-02 -1.0941371026490810e-02 0.0000000000000000e+00  -2.4527995658619284e-02 -1.0998689989211391e-02 0.0000000000000000e+00  -2.5419113880469801e-02 -1.1881644292165344e-02 0.0000000000000000e+00  -2.4613972534958915e-02 -1.2117266451285882e-02 0.0000000000000000e+00  -2.4264956709926736e-02 -1.2465988984732702e-02 0.0000000000000000e+00  -2.5145878227209567e-02 -1.3436405462341230e-02 0.0000000000000000e+00  -2.1569855471937224e-02 -1.2042246372318505e-02 0.0000000000000000e+00  -2.9925373304319807e-02 -1.7329349575425878e-02 0.0000000000000000e+00  -2.0786433124905655e-02 -1.2508992973848894e-02 0.0000000000000000e+00  -2.0993050997918695e-02 -1.3128060397336605e-02 0.0000000000000000e+00  -2.8717053417174697e-02 -1.8524564730877307e-02 0.0000000000000000e+00  -2.0330035893311636e-02 -1.3643458375215689e-02 0.0000000000000000e+00  -2.2103034643320568e-02 -1.5426580032913343e-02 0.0000000000000000e+00  -2.1869921956568658e-02 -1.5834384118635862e-02 0.0000000000000000e+00  -2.1775523588055158e-02 -1.6304627673639178e-02 0.0000000000000000e+00  -2.1083603659421031e-02 -1.6508905737741632e-02 0.0000000000000000e+00  -2.0727618800768868e-02 -1.6843036296110132e-02 0.0000000000000000e+00  -2.0770889231918454e-02 -1.7406551510075557e-02 0.0000000000000000e+00  -1.7773835326867233e-02 -1.5536626667449897e-02 0.0000000000000000e+00  -2.4325577732032668e-02 -2.2025159789686683e-02 0.0000000000000000e+00  -1.7363081312591955e-02 -1.6368269101450988e-02 0.0000000000000000e+00  -1.7661826477638407e-02 -1.7335154541614835e-02 0.0000000000000000e+00  -1.7628131433702749e-02 -1.7890567839417212e-02 0.0000000000000000e+00  -1.7578777360714344e-02 -1.8484230435240005e-02 0.0000000000000000e+00  -1.6774013533371757e-02 -1.8433926148315433e-02 0.0000000000000000e+00  -1.6502398949854124e-02 -1.8808096726137438e-02 0.0000000000000000e+00  -1.6596829697099653e-02 -1.9633316313650645e-02 0.0000000000000000e+00  -1.4491750442635424e-02 -1.7920821544237169e-02 0.0000000000000000e+00  -1.9466567676396398e-02 -2.5065718496214234e-02 0.0000000000000000e+00  -1.3367224031993464e-02 -1.7923680016490050e-02 0.0000000000000000e+00  -1.3275640835701829e-02 -1.8675745709228930e-02 0.0000000000000000e+00  -1.7636062412089797e-02 -2.5814652371304883e-02 0.0000000000000000e+00  -1.2459350748860608e-02 -1.9097438516907268e-02 0.0000000000000000e+00  -1.3086117223193203e-02 -2.1114576545210286e-02 0.0000000000000000e+00  -1.2534816979461641e-02 -2.1265423705452955e-02 0.0000000000000000e+00  -1.1040407642758108e-02 -1.9807742951937914e-02 0.0000000000000000e+00  -1.4414395368431423e-02 -2.7163545769385001e-02 0.0000000000000000e+00  -1.0092883803698422e-02 -2.0171058041922391e-02 0.0000000000000000e+00  -1.0127629134297629e-02 -2.1522118876000494e-02 0.0000000000000000e+00  -9.5917263322254989e-03 -2.1666725603699262e-02 0.0000000000000000e+00  -8.9056243871032670e-03 -2.1571294248504926e-02 0.0000000000000000e+00  -1.1286710998760822e-02 -2.9027217318299010e-02 0.0000000000000000e+00  -7.1953212013606558e-03 -2.0021174853328074e-02 0.0000000000000000e+00  -7.1213240491597709e-03 -2.1404774114273516e-02 0.0000000000000000e+00  -7.3124863580521920e-03 -2.3974419851820451e-02 0.0000000000000000e+00  -6.5651382471420931e-03 -2.3692978160141837e-02 0.0000000000000000e+00  -5.0161790843037271e-03 -1.9978316552206308e-02 0.0000000000000000e+00  -6.4998506156472022e-03 -2.9102888258350123e-02 0.0000000000000000e+00  -3.9953381177838471e-03 -2.0064856078834837e-02 0.0000000000000000e+00  -4.1106179165128435e-03 -2.3908841343014898e-02 0.0000000000000000e+00  -3.5310216139225878e-03 -2.4136597076058332e-02 0.0000000000000000e+00  -2.7161558768994728e-03 -2.2672322517204871e-02 0.0000000000000000e+00  -2.0676085524793759e-03 -2.2124004952332153e-02 0.0000000000000000e+00  -1.7198391928516684e-03 -2.5262284386293063e-02 0.0000000000000000e+00  -9.4900899913492398e-04 -2.2885853105936636e-02 0.0000000000000000e+00  -4.3075309338862444e-04 -2.2902990335885973e-02 0.0000000000000000e+00  1.6892661162969558e-04 -2.4429489104649458e-02 0.0000000000000000e+00  7.0344031593020349e-04 -2.2755986346348588e-02 0.0000000000000000e+00  1.2431428459414077e-03 -2.2401928801658567e-02 0.0000000000000000e+00  2.4280156863820605e-03 -3.0708526852023445e-02 0.0000000000000000e+00  2.1126588632800528e-03 -2.1138429952376147e-02 0.0000000000000000e+00  2.8527423504787867e-03 -2.2371627679856145e-02 0.0000000000000000e+00  3.6474751086899141e-03 -2.4106187418317333e-02 0.0000000000000000e+00  3.9508701590960961e-03 -2.2338732963946627e-02 0.0000000000000000e+00  4.4252650829849308e-03 -2.1823639211148837e-02 0.0000000000000000e+00  5.6777488811494744e-03 -2.4796043680115874e-02 0.0000000000000000e+00  5.7338737086881416e-03 -2.2410824087724001e-02 0.0000000000000000e+00  6.2637938928325736e-03 -2.2392349952003152e-02 0.0000000000000000e+00  7.3185862234585982e-03 -2.3793803823033567e-02 0.0000000000000000e+00  7.3633839507104932e-03 -2.2103581458392491e-02 0.0000000000000000e+00  7.7802898829443046e-03 -2.1601337272453242e-02 0.0000000000000000e+00  1.1426350160559689e-02 -2.9507141559205249e-02 0.0000000000000000e+00  8.2715506646560012e-03 -2.0201372497197004e-02 0.0000000000000000e+00  9.3958636765253487e-03 -2.1367828804216022e-02 0.0000000000000000e+00  1.0688134850880954e-02 -2.2913399773749624e-02 0.0000000000000000e+00  1.0484484892815917e-02 -2.1201561257354666e-02 0.0000000000000000e+00  1.0728643683102338e-02 -2.0536618913628506e-02 0.0000000000000000e+00  1.2945810103212115e-02 -2.3466305353764556e-02 0.0000000000000000e+00  1.1142640338961165e-02 -1.9168285577447677e-02 0.0000000000000000e+00  1.6053264322125255e-02 -2.6466400034425842e-02 0.0000000000000000e+00  1.2243440015316832e-02 -1.9275226437331729e-02 0.0000000000000000e+00  1.3276935060824058e-02 -2.0016196623481777e-02 0.0000000000000000e+00  1.4542308937452883e-02 -2.0881366422286034e-02 0.0000000000000000e+00  1.4597523968162345e-02 -2.0008836106822841e-02 0.0000000000000000e+00  1.5223536770161377e-02 -1.9927028609003174e-02 0.0000000000000000e+00  1.6224141850787795e-02 -2.0238772465611406e-02 0.0000000000000000e+00  1.6265030391639887e-02 -1.9509443306993800e-02 0.0000000000000000e+00  1.6635925825376693e-02 -1.9157258243050840e-02 0.0000000000000000e+00  1.8924142198643627e-02 -2.0845400568224585e-02 0.0000000000000000e+00  1.7534419312891514e-02 -1.8536711663397435e-02 0.0000000000000000e+00  1.6080026462565847e-02 -1.6242675689257687e-02 0.0000000000000000e+00  2.4830890622863054e-02 -2.4019721861074143e-02 0.0000000000000000e+00  1.5603675794854407e-02 -1.4568720103726297e-02 0.0000000000000000e+00  2.5019580263394323e-02 -2.2507175911125554e-02 0.0000000000000000e+00  1.5802810466868319e-02 -1.3701002841326380e-02 0.0000000000000000e+00  2.6668266430419335e-02 -2.2237175520977679e-02 0.0000000000000000e+00  1.7474898157239512e-02 -1.4105093307677827e-02 0.0000000000000000e+00  2.0631801940779855e-02 -1.6059986160813760e-02 0.0000000000000000e+00  2.3530351118322166e-02 -1.7552253925037873e-02 0.0000000000000000e+00  2.1359613521769256e-02 -1.5315059312324110e-02 0.0000000000000000e+00  2.1827864674961041e-02 -1.5048617104358121e-02 0.0000000000000000e+00  2.5082453532268598e-02 -1.6587404493129333e-02 0.0000000000000000e+00  2.0757392559303429e-02 -1.3196682390809839e-02 0.0000000000000000e+00  3.0023901735290355e-02 -1.8400521921976113e-02 0.0000000000000000e+00  1.8624921304006916e-02 -1.0980884450978022e-02 0.0000000000000000e+00  3.1290673015990866e-02 -1.7745852691986023e-02 0.0000000000000000e+00  1.8934406978647796e-02 -1.0316885638086833e-02 0.0000000000000000e+00  3.1550576766819188e-02 -1.6503735500667832e-02 0.0000000000000000e+00  2.1540261994913466e-02 -1.0850348620733547e-02 0.0000000000000000e+00  2.2823999870237557e-02 -1.1033721916185221e-02 0.0000000000000000e+00  3.2428236128332719e-02 -1.5032184957091783e-02 0.0000000000000000e+00  2.0160776520336925e-02 -8.9641368861060645e-03 0.0000000000000000e+00  3.3274580183984354e-02 -1.4183218910805120e-02 0.0000000000000000e+00  2.2821356780744123e-02 -9.3198208171487718e-03 0.0000000000000000e+00  2.7415585142521428e-02 -1.0680749448993339e-02 0.0000000000000000e+00  2.6140215477271758e-02 -9.7660779305411959e-03 0.0000000000000000e+00  2.3681721533403796e-02 -8.4699771265282948e-03 0.0000000000000000e+00  2.7079187680942966e-02 -9.2142650509597773e-03 0.0000000000000000e+00  2.7674261721078400e-02 -8.8996078102451092e-03 0.0000000000000000e+00  2.8326058260394069e-02 -8.6675278212768742e-03 0.0000000000000000e+00  2.4981484916519754e-02 -7.2596816324373946e-03 0.0000000000000000e+00  3.4603547484259256e-02 -9.5164600957295085e-03 0.0000000000000000e+00  2.5803694837300804e-02 -6.7056856882504318e-03 0.0000000000000000e+00  2.7004619956310809e-02 -6.5737434915810397e-03 0.0000000000000000e+00  2.7444679266786301e-02 -6.2594278118535537e-03 0.0000000000000000e+00  2.7492885610752787e-02 -5.8371349969763928e-03 0.0000000000000000e+00  2.7573439133996978e-02 -5.4297949852598849e-03 0.0000000000000000e+00  2.9716451584692740e-02 -5.4083104852012372e-03 0.0000000000000000e+00  2.7112535571054433e-02 -4.4883613281982964e-03 0.0000000000000000e+00  3.7311264708637770e-02 -5.5747563046157416e-03 0.0000000000000000e+00  2.3061629607573304e-02 -3.1326814855638214e-03 0.0000000000000000e+00  3.6250446006127736e-02 -4.3884953698257239e-03 0.0000000000000000e+00  2.4291686582642368e-02 -2.5583496616088139e-03 0.0000000000000000e+00  2.7944759464034671e-02 -2.5576866954420932e-03 0.0000000000000000e+00  2.7811745818779491e-02 -2.1529531842802907e-03 0.0000000000000000e+00  2.7033232354461090e-02 -1.6971889877134834e-03 0.0000000000000000e+00  3.5971326849832681e-02 -1.7712803076358205e-03 0.0000000000000000e+00  2.6347259668009885e-02 -9.2174582252646802e-04 0.0000000000000000e+00  2.8240679254087919e-02 -5.9594798799355220e-04 0.0000000000000000e+00  2.8385830519084922e-02 -2.0854335636710347e-04 0.0000000000000000e+00  2.8064714509277541e-02 1.9057445613778848e-04 0.0000000000000000e+00  2.8041436851866355e-02 5.7325545460871748e-04 0.0000000000000000e+00  2.9892967142396719e-02 1.0233220015451289e-03 0.0000000000000000e+00  2.9010243662288531e-02 1.4077121588297516e-03 0.0000000000000000e+00  2.5746854453655436e-02 1.6142861413272914e-03 0.0000000000000000e+00  3.5279974665243498e-02 2.7188996010477206e-03 0.0000000000000000e+00  2.5469380017291189e-02 2.3476418292174128e-03 0.0000000000000000e+00  2.6110994459481274e-02 2.8194068776719351e-03 0.0000000000000000e+00  2.7445675903110041e-02 3.3549111597128050e-03 0.0000000000000000e+00  2.7972301934632446e-02 3.8540433137683960e-03 0.0000000000000000e+00  2.5954438940414409e-02 3.9897308778762955e-03 0.0000000000000000e+00  2.8129483341416437e-02 4.7186163626142105e-03 0.0000000000000000e+00  2.8318169861025210e-02 5.1679534225966880e-03 0.0000000000000000e+00  2.7073763127169682e-02 5.3759102470320799e-03 0.0000000000000000e+00  2.3987064476492480e-02 5.1351226590850077e-03 0.0000000000000000e+00  3.5376118246152069e-02 8.0644326413744499e-03 0.0000000000000000e+00  2.2387052299267553e-02 5.4662267569917499e-03 0.0000000000000000e+00  3.3679551137375571e-02 8.7441524392635576e-03 0.0000000000000000e+00  2.3534312741957782e-02 6.5163395118704387e-03 0.0000000000000000e+00  2.3170700544402414e-02 6.8218594481319634e-03 0.0000000000000000e+00  3.2500648927