<?xml version="1.0"?>
<VTKFile type="UnstructuredGrid"  version="0.1"  >
<UnstructuredGrid>
<Piece  NumberOfPoints="4252" NumberOfCells="6720">
<Points>
<DataArray  type="Float64"  NumberOfComponents="3"  format="ascii">0 0.01 0  10 0.01 0  0 1.027175258281704 0  10 1.027175258281704 0  0.007129524987038337 0.009997491741717768 0  0.01258064459049757 0.00999219056738478 0  0.01872173241756402 0.009982708334120727 0  0.02429919625640796 0.009970876572043954 0  0.03017238705920286 0.009955108531615313 0  0.03612352734296466 0.0099356743715591 0  0.04164979236492252 0.009914517792428084 0  0.04780928449023854 0.009887415768096998 0  0.05327287671237849 0.009860276931383746 0  0.0593436395885565 0.009826715421083503 0  0.06505608699933001 0.009791870631895848 0  0.07077243060783153 0.009753845329312128 0  0.07684085351634186 0.009710036052663748 0  0.08230528612367993 0.009667566921662384 0  0.08846525752759338 0.009616276826848907 0  0.09398926586603956 0.0095672187064786 0  0.09994377871281757 0.009511110804477986 0  0.10581288515308 0.009452550633355501 0  0.1113930001121819 0.009393893683773193 0  0.1175326299024069 0.009326020378011352 0  0.122983161250664 0.009262856809916281 0  0.1290978349347763 0.009188765415777931 0  0.1347300222736412 0.00911751981665075 0  0.1405327472005438 0.009041131768776852 0  0.1465421455697866 0.008958856277281909 0  0.1520341809431761 0.008880870879718691 0  0.1581991754706344 0.00879018143976357 0  0.1636834803794234 0.008706732874359017 0  0.1697073563005918 0.008612096527554045 0  0.1754901396361989 0.008518345936558386 0  0.1811391035120075 0.008424050210098115 0  0.1872444279222087 0.00831915423323064 0  0.1926961446341008 0.008222899998379215 0  0.198841090009393 0.008111516418624823 0  0.2044064770158165 0.008008028244452866 0  0.2102948627703611 0.007895869216798803 0  0.2162299794791283 0.007780085801116003 0  0.2217647046821167 0.007669675498109103 0  0.2279204403470532 0.007544154739747676 0  0.2333791472114919 0.007430485124751003 0  0.2394590817234977 0.0073013084386626 0  0.245152498789355 0.007177928079207972 0  0.2508861115607116 0.007051356111670669 0  0.2569419868439766 0.006915186417023598 0  0.2624099649457279 0.006790084113692359 0  0.2685711825796066 0.006646722567663751 0  0.274083748205357 0.006516341894728842 0  0.2800541704182985 0.00637292855786236 0  0.2859022845836161 0.006230279166502627 0  0.291495955429921 0.006091868246150131 0  0.2976275706217687 0.005937986548763313 0  0.3030757324287757 0.005799406374294222 0  0.3091980118239236 0.005641654227187252 0  0.3148109405089491 0.005495191514879527 0  0.3206341933715942 0.005341435282378838 0  0.3266248575896781 0.005181393525330103 0  0.3321252080346692 0.005032833254881577 0  0.3382880718234609 0.004864596209960478 0  0.3437628463580178 0.004713611578807419 0  0.3498021006600692 0.004545443593512952 0  0.3555594631656461 0.004383601001460968 0  0.3612291099056053 0.004222822711549606 0  0.3673210805066339 0.004048576418709386 0  0.3727746135437823 0.003891330909934085 0  0.3789246700786391 0.003712634483246944 0  0.3844721023230384 0.00355025746928806 0  0.3903845048135511 0.003376011435332509 0  0.3962935688476314 0.003200699755406988 0  0.4018430601204535 0.00303505085978487 0  0.4079921977692303 0.002850427660455144 0  0.4134449905916002 0.002685819499171436 0  0.4195385366679084 0.002500937932218923 0  0.425204482428441 0.002328206591247292 0  0.4309651825948974 0.00215183074136113 0  0.4370014133195289 0.001966263547608745 0  0.4424769325836848 0.00179732019881714 0  0.4486395183564056 0.001606544730410899 0  0.4541373275735043 0.001435838569361521 0  0.4601308451156257 0.001249254088784412 0  0.4659488863550298 0.001067707976620331 0  0.471564807260988 0.0008921302908496037 0  0.4776843759254726 0.0007004920228137959 0  0.4831317484445766 0.0005296836585198918 0  0.4892643513384632 0.0003372062279158936 0  0.4948528283485032 0.000161696161435303 0  0.5007056813361916 -2.216943068070812e-05 0  0.5066699093509902 -0.000209526046556915 0  0.5121845298566023 -0.0003826949545447442 0  0.5183439831944545 -0.0005759742926309219 0  0.5238088617282698 -0.0007472800272428554 0  0.5298681543527348 -0.0009369594486414562 0  0.5355929349139432 -0.001115856450691032 0  0.5412927239341832 -0.001293613669039852 0  0.5473668732672543 -0.001482588207084091 0  0.5528259073001393 -0.001651967505962102 0  0.5589819336317072 -0.001842386787779294 0  0.5645100189486582 -0.002012797049529044 0  0.5704524332663232 -0.002195301346534757 0  0.5763298911552834 -0.002375058665203144 0  0.5819006708717119 -0.002544689651648297 0  0.5880413281562127 -0.002730768313747055 0  0.5934904284812221 -0.002895042191696308 0  0.5995995320960693 -0.003078202338538874 0  0.605236779888003 -0.003246210954182579 0  0.6110299855290301 -0.003417806240976177 0  0.6170432999212266 -0.00359472323302265 0  0.6225307972792151 -0.00375505261922207 0  0.6286944373476531 -0.003933803567825084 0  0.6341794289295242 -0.004091634709336539 0  0.6401977648984302 -0.004263413669385436 0  0.6459846030577213 -0.004427148756161272 0  0.6516277670629291 -0.004585409549508515 0  0.6577342305863492 -0.004755038487876419 0  0.6631843111407589 -0.004904958327357115 0  0.6693271588517591 -0.005072208653571043 0  0.6748942591145469 -0.005222152905474348 0  0.6807781354428797 -0.005378892074409919 0  0.6867158102497221 -0.005535201343768038 0  0.6922478556369909 -0.005679100421160843 0  0.6984036264198542 -0.005837205328254034 0  0.7038624132928571 -0.005975584427524931 0  0.7099402809449575 -0.006127588021236129 0  0.7156361945945205 -0.006268012368771779 0  0.7213667017809595 -0.006407263887957157 0  0.7274241898103784 -0.006552202568912044 0  0.7328913375361901 -0.006680980644346233 0  0.7390522654079078 -0.006823736587757829 0  0.7445663161830813 -0.006949337256267011 0  0.7505345306161221 -0.007082931996795786 0  0.7563856967966242 -0.007211490056377221 0  0.7619775509571868 -0.007332073958440476 0  0.7681106054434813 -0.007461725199742056 0  0.7735594228940573 -0.007574589702563127 0  0.7796809699364847 -0.007698739982391196 0  0.7852974086111042 -0.007810142587226769 0  0.7911178568436495 -0.007923025648348906 0  0.797112403703894 -0.008036515862006795 0  0.8026119630288198 -0.008138129173272899 0  0.8087760180262171 -0.008249131188213875 0  0.814253500572072 -0.008345174877796967 0  0.8202905515677629 -0.008448166667805387 0  0.8260544286221699 -0.008543663134562481 0  0.831720415905675 -0.008634807324656511 0  0.8378167080097026 -0.008729817306667463 0  0.8432709709919499 -0.008812108559864256 0  0.8494209576248264 -0.008901791974276371 0  0.8549745826348545 -0.008979924427376591 0  0.8608814329347291 -0.009060026011188804 0  0.8667998142885592 -0.009137155111096256 0  0.8723460990452367 -0.009206568509458774 0  0.8784989383774584 -0.009280301817794542 0  0.8839552890388401 -0.009342788637451834 0  0.8900456692707091 -0.009409293585850673 0  0.8957233874467343 -0.009468190513990782 0  0.9014754209053449 -0.009524786393944277 0  0.9075213579987256 -0.009580921173179099 0  0.9129954731058688 -0.009628765913494807 0  0.9191593188847452 -0.009679229788646495 0  0.9246655330424429 -0.009721240864333262 0  0.9306503084472221 -0.009763603884533442 0  0.9364847200361547 -0.009801580348484516 0  0.9420914259676206 -0.009834972127394636 0  0.948219177636862 -0.009867976960504428 0  0.9536688877131657 -0.009894257783109666 0  0.9597979104438458 -0.009920349306153329 0  0.9654020314719589 -0.009940987600901847 0  0.9712398170272581 -0.009959209624459757 0  0.9772219132298864 -0.009974407121723252 0  0.9827297975109929 -0.009985285083248089 0  0.9888934840407251 -0.009993913310034224 0  0.9943667421923366 -0.009998434045983932 0  1.000414962337846 -0.009999991502249178 0  1.00616395254491 -0.009998125110441144 0  1.011844857354635 -0.009993077234903055 0  1.017933801412069 -0.009984132829796667 0  1.023390946643176 -0.00997301205183276 0  1.029544679732296 -0.009956955598792184 0  1.035089558108845 -0.009939300412459717 0  1.041010936359372 -0.009917116481575694 0  1.04691554237944 -0.00989157814857561 0  1.052471258615448 -0.009864440751261633 0  1.05862104751389 -0.009830897850136421 0  1.064075481579663 -0.009798076706746352 0  1.070173358231585 -0.009757978136698224 0  1.075837941143087 -0.00971752009646258 0  1.081604377355612 -0.009673173917302162 0  1.087640686528322 -0.009623351755525641 0  1.093119387704205 -0.009575135453199036 0  1.099284093826516 -0.009517491101966447 0  1.104783734376909 -0.009463052176492596 0  1.110779897618174 -0.009400480030121557 0  1.116599992234411 -0.00933655469875222 0  1.122217899723542 -0.009271889359757672 0  1.128339818747432 -0.009198135031144493 0  1.133789446190431 -0.00912961705214143 0  1.139923317158062 -0.009049295973540348 0  1.145515844317945 -0.008973134373133167 0  1.151367773813766 -0.008890475161473248 0  1.157336906671575 -0.008803064948780913 0  1.16285160438384 -0.008719557366803981 0  1.16901331600552 -0.008623157866544266 0  1.174481522907442 -0.00853490108265173 0  1.180539122189597 -0.008434191931863186 0  1.186271617394136 -0.008336073959344166 0  1.191966996821913 -0.008235914041393521 0  1.198046448076202 -0.008126091334838595 0  1.203505695906331 -0.008024945109277802 0  1.209661806077474 -0.007908057515838151 0  1.21519584913737 -0.007800455577732041 0  1.221132109188887 -0.00768241304184519 0  1.227019087412133 -0.007562711583992629 0  1.232585135446325 -0.007447155722966398 0  1.238729389023077 -0.007316953404904543 0  1.244180486899644 -0.007199156086382225 0  1.250286093435722 -0.007064709646262071 0  1.255932842016573 -0.006938052500145445 0  1.261716857103797 -0.006806053534187844 0  1.26773845151126 -0.006666245775332091 0  1.273222687278595 -0.006536836953056475 0  1.279386853652711 -0.00638906998029936 0  1.284876650734994 -0.006255450389977176 0  1.290887326898431 -0.00610702037198264 0  1.296685536664392 -0.00596177282270944 0  1.30231949087952 -0.005818744638503708 0  1.308431215520824
[...]
<PointData  Vectors="Traction"> 
<DataArray  type="Float64"  Name="Traction"  NumberOfComponents="3" format="ascii">3.0539915947367818e-05 1.0124783022307163e-02 0.0000000000000000e+00  3.0539915947367818e-05 1.0124783022307163e-02 0.0000000000000000e+00  2.9507082256837978e-09 -8.1828300809482107e-09 0.0000000000000000e+00  2.9507082256837978e-09 -8.1828300809482107e-09 0.0000000000000000e+00  -5.6182967806776374e-04 1.7011673784936565e-02 0.0000000000000000e+00  -8.6626991370076253e-04 1.5456784157509822e-02 0.0000000000000000e+00  -1.1867387977255288e-03 1.4321128139420951e-02 0.0000000000000000e+00  -1.6854380759650438e-03 1.5819289146550310e-02 0.0000000000000000e+00  -1.8089211278074918e-03 1.3603693211827262e-02 0.0000000000000000e+00  -2.9367815352623820e-03 1.8532109650147618e-02 0.0000000000000000e+00  -2.2056198194260008e-03 1.2131507564331132e-02 0.0000000000000000e+00  -3.0020623330428943e-03 1.4256632178156096e-02 0.0000000000000000e+00  -3.5907847307168929e-03 1.5138949309087624e-02 0.0000000000000000e+00  -3.3602435751654137e-03 1.2619643596884861e-02 0.0000000000000000e+00  -5.2734731414228004e-03 1.8115214833505287e-02 0.0000000000000000e+00  -3.7297665399328946e-03 1.1821429857311607e-02 0.0000000000000000e+00  -6.4384598984865140e-03 1.8497967619953901e-02 0.0000000000000000e+00  -4.4865193974254194e-03 1.2090531660898424e-02 0.0000000000000000e+00  -5.5796309425892006e-03 1.3907518428303303e-02 0.0000000000000000e+00  -6.6066104446397952e-03 1.5263875162689840e-02 0.0000000000000000e+00  -6.2811250831830518e-03 1.3593940197171327e-02 0.0000000000000000e+00  -6.6316468313231897e-03 1.3462317377522990e-02 0.0000000000000000e+00  -7.8360739824630821e-03 1.4960838825230688e-02 0.0000000000000000e+00  -7.4883008630793396e-03 1.3497662898650630e-02 0.0000000000000000e+00  -7.8476438608369604e-03 1.3505204240975965e-02 0.0000000000000000e+00  -8.5895435301312859e-03 1.3944528659856112e-02 0.0000000000000000e+00  -8.5190867121810489e-03 1.3231255154073919e-02 0.0000000000000000e+00  -8.2634815471110765e-03 1.2282209560940699e-02 0.0000000000000000e+00  -1.2100367575645572e-02 1.7102444808427437e-02 0.0000000000000000e+00  -9.3565373430184087e-03 1.2770641903966604e-02 0.0000000000000000e+00  -9.3628951396069627e-03 1.2166470784307489e-02 0.0000000000000000e+00  -9.7097917504250352e-03 1.2068586156613494e-02 0.0000000000000000e+00  -1.0916002566668297e-02 1.2956082120806083e-02 0.0000000000000000e+00  -1.5852940831050766e-02 1.8088681706931235e-02 0.0000000000000000e+00  -6.7212177606510107e-03 7.3942969163177125e-03 0.0000000000000000e+00  -1.4811415809648155e-02 1.5540058038252508e-02 0.0000000000000000e+00  -1.4405123864604286e-02 1.4595244941681029e-02 0.0000000000000000e+00  -9.5190934833078340e-03 9.3631475901997298e-03 0.0000000000000000e+00  -1.6438811434275859e-02 1.5502356370937817e-02 0.0000000000000000e+00  -1.0785812834920513e-02 9.9293968553414019e-03 0.0000000000000000e+00  -1.1599177483914709e-02 1.0355970128206477e-02 0.0000000000000000e+00  -1.3217968423363579e-02 1.1228642997030859e-02 0.0000000000000000e+00  -1.9203301239452703e-02 1.5623687636595723e-02 0.0000000000000000e+00  -1.3998200836280960e-02 1.1221895085473266e-02 0.0000000000000000e+00  -1.1768435341511703e-02 9.1167867945259953e-03 0.0000000000000000e+00  -1.9602318743804251e-02 1.4566742681723513e-02 0.0000000000000000e+00  -1.2077152645851781e-02 8.7151075362511092e-03 0.0000000000000000e+00  -1.9798029556107509e-02 1.3775978631343021e-02 0.0000000000000000e+00  -1.4082973878013947e-02 9.4739592324421407e-03 0.0000000000000000e+00  -1.5898110326305847e-02 1.0298383950368785e-02 0.0000000000000000e+00  -1.6121003927713703e-02 1.0058935658818959e-02 0.0000000000000000e+00  -1.7792877884687253e-02 1.0680466184057913e-02 0.0000000000000000e+00  -1.6813464947679560e-02 9.7678574016589904e-03 0.0000000000000000e+00  -1.4983558597445375e-02 8.3663034017963898e-03 0.0000000000000000e+00  -2.1757997134114061e-02 1.1670051958165959e-02 0.0000000000000000e+00  -2.2424596546337883e-02 1.1644324282951188e-02 0.0000000000000000e+00  -1.4378295471629918e-02 7.2724617591367656e-03 0.0000000000000000e+00  -2.3855819043757581e-02 1.1592713059805113e-02 0.0000000000000000e+00  -1.3651760803304576e-02 6.4220803755435391e-03 0.0000000000000000e+00  -2.4322125439986984e-02 1.1049376118411844e-02 0.0000000000000000e+00  -1.6569614123406361e-02 7.2907168366036449e-03 0.0000000000000000e+00  -1.9184543196323876e-02 8.1352049808795755e-03 0.0000000000000000e+00  -1.9797535230033195e-02 8.0498855041486340e-03 0.0000000000000000e+00  -1.9222059732129954e-02 7.4915256865095217e-03 0.0000000000000000e+00  -2.5995139153238853e-02 9.6652418522094764e-03 0.0000000000000000e+00  -1.7051617002274325e-02 6.1223193088530041e-03 0.0000000000000000e+00  -2.8157719175120343e-02 9.5917585836516103e-03 0.0000000000000000e+00  -1.2870613568293126e-02 4.2011695037979836e-03 0.0000000000000000e+00  -2.7859387157034142e-02 8.6503948499636434e-03 0.0000000000000000e+00  -2.5590958127390418e-02 7.6283211037779736e-03 0.0000000000000000e+00  -2.0281935720697183e-02 5.8216731425046421e-03 0.0000000000000000e+00  -2.0797299289818900e-02 5.7073333420686349e-03 0.0000000000000000e+00  -1.7035634928115943e-02 4.4597433959938310e-03 0.0000000000000000e+00  -2.6301744068758685e-02 6.5142148758539171e-03 0.0000000000000000e+00  -2.6441520380634739e-02 6.2123982182770449e-03 0.0000000000000000e+00  -1.7502395329592857e-02 3.9235436144320597e-03 0.0000000000000000e+00  -2.9312877642913494e-02 6.1098282536249052e-03 0.0000000000000000e+00  -1.9903805229510078e-02 3.8817686489530435e-03 0.0000000000000000e+00  -2.0081830845246357e-02 3.6477049775778740e-03 0.0000000000000000e+00  -2.9084597255048635e-02 4.9325980569532831e-03 0.0000000000000000e+00  -1.9757116344942403e-02 3.0802980509095326e-03 0.0000000000000000e+00  -2.4002113053992111e-02 3.4079654254259998e-03 0.0000000000000000e+00  -2.2573435544229786e-02 2.8969336006891095e-03 0.0000000000000000e+00  -2.3601430407362668e-02 2.7503983646755522e-03 0.0000000000000000e+00  -2.4065733446423383e-02 2.5107493846742200e-03 0.0000000000000000e+00  -3.1370588995479759e-02 2.8981099337814435e-03 0.0000000000000000e+00  -2.1857826919734251e-02 1.7957460962775766e-03 0.0000000000000000e+00  -2.2911504629190130e-02 1.5821001667196825e-03 0.0000000000000000e+00  -2.5094721654469538e-02 1.4197921250507367e-03 0.0000000000000000e+00  -2.2133262165145808e-02 9.7663886168080369e-04 0.0000000000000000e+00  -3.0283700631891296e-02 9.9696077968600963e-04 0.0000000000000000e+00  -2.2693250301711730e-02 4.7857436486035905e-04 0.0000000000000000e+00  -2.3235724784605370e-02 2.0865844042624655e-04 0.0000000000000000e+00  -2.3241560033455674e-02 -6.2803567069928315e-05 0.0000000000000000e+00  -2.3164910891930544e-02 -3.5200746845124426e-04 0.0000000000000000e+00  -2.4161195508529208e-02 -6.6084002015022556e-04 0.0000000000000000e+00  -2.3515117826288689e-02 -9.2132898126878998e-04 0.0000000000000000e+00  -3.1357169984627530e-02 -1.6099044866582672e-03 0.0000000000000000e+00  -2.2461180617604930e-02 -1.4208834499353908e-03 0.0000000000000000e+00  -2.4290410610430004e-02 -1.8511991914983861e-03 0.0000000000000000e+00  -2.4963443410242373e-02 -2.1902259770473732e-03 0.0000000000000000e+00  -2.2036473036307840e-02 -2.2211180754365539e-03 0.0000000000000000e+00  -3.0634487039024352e-02 -3.4777150682744860e-03 0.0000000000000000e+00  -2.0070779487873048e-02 -2.5366024648132532e-03 0.0000000000000000e+00  -2.3222308047882428e-02 -3.2467001028470988e-03 0.0000000000000000e+00  -2.4203921900211176e-02 -3.6541987157623136e-03 0.0000000000000000e+00  -2.4195949843989515e-02 -3.9684526470388729e-03 0.0000000000000000e+00  -2.2948068720253772e-02 -4.0688414102077828e-03 0.0000000000000000e+00  -2.3173265569122969e-02 -4.3819409252594437e-03 0.0000000000000000e+00  -2.3910270675812584e-02 -4.8105785795792841e-03 0.0000000000000000e+00  -2.3301982341698734e-02 -5.0333730823665232e-03 0.0000000000000000e+00  -2.3083473119956673e-02 -5.3004906626497057e-03 0.0000000000000000e+00  -2.3490911042692984e-02 -5.6781985642106684e-03 0.0000000000000000e+00  -2.1088262391364753e-02 -5.4207611876938870e-03 0.0000000000000000e+00  -2.8739443028533845e-02 -7.7442859026172171e-03 0.0000000000000000e+00  -2.1058589781108850e-02 -5.9966032284723067e-03 0.0000000000000000e+00  -2.1854203736133726e-02 -6.5640838117241706e-03 0.0000000000000000e+00  -2.1804328510195852e-02 -6.8639331384141074e-03 0.0000000000000000e+00  -2.2209890425085359e-02 -7.3018763958831055e-03 0.0000000000000000e+00  -2.1580523899272043e-02 -7.4483797503624646e-03 0.0000000000000000e+00  -1.9252110708120738e-02 -6.9711298188904012e-03 0.0000000000000000e+00  -2.7923817656980439e-02 -1.0483999517935671e-02 0.0000000000000000e+00  -1.8863384796388487e-02 -7.4076881264580445e-03 0.0000000000000000e+00  -2.1056334890574509e-02 -8.6590683241821904e-03 0.0000000000000000e+00  -2.1319529658143248e-02 -9.0914552478579703e-03 0.0000000000000000e+00  -2.0871763688902048e-02 -9.2791830207282575e-03 0.0000000000000000e+00  -1.8036605284285041e-02 -8.3758264980116313e-03 0.0000000000000000e+00  -2.4848588715832363e-02 -1.2050573038145728e-02 0.0000000000000000e+00  -1.7326279405726727e-02 -8.6627034332961688e-03 0.0000000000000000e+00  -1.9579590210011561e-02 -1.0092082330671479e-02 0.0000000000000000e+00  -1.9811982631069786e-02 -1.0657559299559307e-02 0.0000000000000000e+00  -1.8731270191899487e-02 -1.0532326105863006e-02 0.0000000000000000e+00  -1.8519401448386871e-02 -1.0835320407292362e-02 0.0000000000000000e+00  -1.8728567054258047e-02 -1.1383843494292625e-02 0.0000000000000000e+00  -1.8048500795444299e-02 -1.1466851138550884e-02 0.0000000000000000e+00  -1.7771274226381268e-02 -1.1797728273212484e-02 0.0000000000000000e+00  -1.7082372134967300e-02 -1.1769747897584840e-02 0.0000000000000000e+00  -1.6918208840359904e-02 -1.2100741108565578e-02 0.0000000000000000e+00  -1.6790518649871761e-02 -1.2422372129588017e-02 0.0000000000000000e+00  -1.4694285256503790e-02 -1.1331619382142520e-02 0.0000000000000000e+00  -1.9947978979564594e-02 -1.5964773510380583e-02 0.0000000000000000e+00  -1.4388647159177698e-02 -1.1957069543374345e-02 0.0000000000000000e+00  -1.4553860148435909e-02 -1.2676268810691895e-02 0.0000000000000000e+00  -1.4310534552401746e-02 -1.2949559893477956e-02 0.0000000000000000e+00  -1.3261568590491749e-02 -1.2471515299728279e-02 0.0000000000000000e+00  -1.8102979019341381e-02 -1.7664378508616050e-02 0.0000000000000000e+00  -1.1031792690194624e-02 -1.1179551415364839e-02 0.0000000000000000e+00  -1.6815549219042124e-02 -1.7731446534663568e-02 0.0000000000000000e+00  -1.1001690775040821e-02 -1.2194113005099925e-02 0.0000000000000000e+00  -1.1191127788631789e-02 -1.3062813659709542e-02 0.0000000000000000e+00  -1.5059615003870928e-02 -1.8348956694003066e-02 0.0000000000000000e+00  -1.0659337160442118e-02 -1.3673712145123989e-02 0.0000000000000000e+00  -1.0640883078314994e-02 -1.4384334877783315e-02 0.0000000000000000e+00  -1.0397132951432216e-02 -1.4691269700277645e-02 0.0000000000000000e+00  -1.0114609200542728e-02 -1.5033630413925346e-02 0.0000000000000000e+00  -9.4891697474304166e-03 -1.4992340064242982e-02 0.0000000000000000e+00  -9.1631539567721947e-03 -1.5331047125027154e-02 0.0000000000000000e+00  -9.0233680302029811e-03 -1.5988140811751365e-02 0.0000000000000000e+00  -7.5088904881972117e-03 -1.4229052184020742e-02 0.0000000000000000e+00  -9.9307216707766148e-03 -2.0095402467662091e-02 0.0000000000000000e+00  -6.2326050306790795e-03 -1.3488443992725880e-02 0.0000000000000000e+00  -6.9106044988951716e-03 -1.6145453359272633e-02 0.0000000000000000e+00  -6.5931003640353871e-03 -1.6579602654655703e-02 0.0000000000000000e+00  -5.3767840058118518e-03 -1.4740096389808917e-02 0.0000000000000000e+00  -6.9652899256649782e-03 -2.0808512136582049e-02 0.0000000000000000e+00  -4.0975086401304900e-03 -1.3402064965333936e-02 0.0000000000000000e+00  -5.7571291061848280e-03 -2.0962551634489696e-02 0.0000000000000000e+00  -3.4231284524508564e-03 -1.4098572385137790e-02 0.0000000000000000e+00  -3.7580127435157566e-03 -1.7780397965459643e-02 0.0000000000000000e+00  -2.9003062501899591e-03 -1.6120180704546995e-02 0.0000000000000000e+00  -2.1369676094617198e-03 -1.4308742483574888e-02 0.0000000000000000e+00  -2.5712316523491463e-03 -2.1567921482129691e-02 0.0000000000000000e+00  -1.3060243854044163e-03 -1.4651290870994068e-02 0.0000000000000000e+00  -9.4241004975416766e-04 -1.6192405800357957e-02 0.0000000000000000e+00  -5.0487432955348790e-04 -1.6978090598223729e-02 0.0000000000000000e+00  -8.9668115819178574e-06 -1.7253481004166692e-02 0.0000000000000000e+00  4.8419996314152947e-04 -1.7206617664584083e-02 0.0000000000000000e+00  8.0364754266447032e-04 -1.4025529735089692e-02 0.0000000000000000e+00  1.8262903052800236e-03 -2.1059915339207716e-02 0.0000000000000000e+00  1.6289679607038639e-03 -1.4223658883289983e-02 0.0000000000000000e+00  2.5078329124022356e-03 -1.6832254235443284e-02 0.0000000000000000e+00  3.0306110933464229e-03 -1.6917531796268107e-02 0.0000000000000000e+00  3.1230283265150718e-03 -1.4880560836776189e-02 0.0000000000000000e+00  4.9950247345414501e-03 -2.0796448630257331e-02 0.0000000000000000e+00  3.7277527936149680e-03 -1.3810999718404982e-02 0.0000000000000000e+00  4.9663154313505141e-03 -1.6384942516527098e-02 0.0000000000000000e+00  5.6197775625086528e-03 -1.6776877339633858e-02 0.0000000000000000e+00  5.3943178951309217e-03 -1.4726524680833937e-02 0.0000000000000000e+00  8.1532869576946294e-03 -2.0564714489900347e-02 0.0000000000000000e+00  5.5948582757895946e-03 -1.3124362864722707e-02 0.0000000000000000e+00  9.3956267957456818e-03 -2.0313988105626651e-02 0.0000000000000000e+00  6.6925304250153106e-03 -1.3611517039089591e-02 0.0000000000000000e+00  8.7859197488904164e-03 -1.6685885755980869e-02 0.0000000000000000e+00  8.4887358882280908e-03 -1.5166366071617173e-02 0.0000000000000000e+00  7.8984031609283210e-03 -1.3334715056639933e-02 0.0000000000000000e+00  1.2521305462846076e-02 -1.9881516134590764e-02 0.0000000000000000e+00  8.6823015649935779e-03 -1.3170058367638956e-02 0.0000000000000000e+00  1.0516418156860203e-02 -1.5084399593349507e-02 0.0000000000000000e+00  1.1364199330404700e-02 -1.5412372363670114e-02 0.0000000000000000e+00  1.1854343661567734e-02 -1.5213974516955990e-02 0.0000000000000000e+00  1.1820415239673785e-02 -1.4578266544380623e-02 0.0000000000000000e+00  1.1034435384562473e-02 -1.2994295228557405e-02 0.0000000000000000e+00  1.6768609779415831e-02 -1.8779238835020362e-02 0.0000000000000000e+00  1.2032425811380797e-02 -1.2991350372716341e-02 0.0000000000000000e+00  1.3503190274902856e-02 -1.3891791573861783e-02 0.0000000000000000e+00  1.4680594837359565e-02 -1.4402865522441128e-02 0.0000000000000000e+00  1.2894653847993553e-02 -1.2157916017879904e-02 0.0000000000000000e+00  1.8777315997879622e-02 -1.6968474831202819e-02 0.0000000000000000e+00  1.2929962558761566e-02 -1.1281139189011151e-02 0.0000000000000000e+00  2.0114132105679437e-02 -1.6787403820241624e-02 0.0000000000000000e+00  1.4369105720932179e-02 -1.1589606314976292e-02 0.0000000000000000e+00  1.5333257219170622e-02 -1.1883045454191622e-02 0.0000000000000000e+00  1.5704992236335587e-02 -1.1725435114073465e-02 0.0000000000000000e+00  1.8203671183130900e-02 -1.3015375495185224e-02 0.0000000000000000e+00  1.7069661845679911e-02 -1.1765927659043480e-02 0.0000000000000000e+00  1.7575914852453755e-02 -1.1663317170266644e-02 0.0000000000000000e+00  1.8633389565545014e-02 -1.1844101074528685e-02 0.0000000000000000e+00  1.8053062121750462e-02 -1.1102913918806365e-02 0.0000000000000000e+00  1.8333538375365395e-02 -1.0843185364714424e-02 0.0000000000000000e+00  1.9255339616194599e-02 -1.0914560967099399e-02 0.0000000000000000e+00  1.7485971229742322e-02 -9.5532424087529169e-03 0.0000000000000000e+00  2.4455784133541908e-02 -1.2904433365771522e-02 0.0000000000000000e+00  1.8347262326525410e-02 -9.3478733022298380e-03 0.0000000000000000e+00  1.9543803906185601e-02 -9.5586299943063151e-03 0.0000000000000000e+00  1.9955452704358907e-02 -9.3752066717839727e-03 0.0000000000000000e+00  2.1567757270380072e-02 -9.6943837102953685e-03 0.0000000000000000e+00  2.1101975179703920e-02 -9.1548543726335304e-03 0.0000000000000000e+00  1.8382578717517424e-02 -7.7074569580297281e-03 0.0000000000000000e+00  2.7229787709508280e-02 -1.0858376890517291e-02 0.0000000000000000e+00  1.8394415060656071e-02 -7.1390505757715061e-03 0.0000000000000000e+00  2.1907425556384381e-02 -8.1095707319685274e-03 0.0000000000000000e+00  2.2602578129835529e-02 -7.9551270779841445e-03 0.0000000000000000e+00  2.0753581335485410e-02 -6.9819124031068750e-03 0.0000000000000000e+00  2.8114447998974730e-02 -9.0038895301797605e-03 0.0000000000000000e+00  2.1011026858509051e-02 -6.4351470075241432e-03 0.0000000000000000e+00  2.1197965719481703e-02 -6.1283927717653928e-03 0.0000000000000000e+00  2.2159152797526328e-02 -6.0849238872564704e-03 0.0000000000000000e+00  2.4308455130820816e-02 -6.3070154949209879e-03 0.0000000000000000e+00  2.2672397747604930e-02 -5.6096202043292021e-03 0.0000000000000000e+00  2.3456048803742271e-02 -5.4828157731748404e-03 0.0000000000000000e+00  2.4576954985684858e-02 -5.3723006913606710e-03 0.0000000000000000e+00  2.3483907144390255e-02 -4.8242914295184326e-03 0.0000000000000000e+00  2.1275369697235411e-02 -4.0709664226737273e-03 0.0000000000000000e+00  3.1168595897444265e-02 -5.5017196841358447e-03 0.0000000000000000e+00  2.0414900268712399e-02 -3.3405177457789779e-03 0.0000000000000000e+00  3.0604891057252698e-02 -4.5840601059992814e-03 0.0000000000000000e+00  2.2127900349001695e-02 -3.0118009173197547e-03 0.0000000000000000e+00  2.1669103266551956e-02 -2.6538134776357275e-03 0.0000000000000000e+00  3.0382714892184113e-02 -3.3754673319083676e-03 0.0000000000000000e+00  2.2061064894561333e-02 -2.1785187157038290e-03 0.0000000000000000e+00  2.3169476206967601e-02 -2.0181293707304290e-03 0.0000000000000000e+00  2.4069150100845569e-02 -1.8061524787785260e-03 0.0000000000000000e+00  2.4687706155326169e-02 -1.5152355639153820e-03 0.0000000000000000e+00  2.4230762662562258e-02 -1.1944204568482707e-03 0.0000000000000000e+00  2.4130127151055902e-02 -8.8367894317010706e-04 0.0000000000000000e+00  2.4873025303815514e-02 -5.8633273074182421e-04 0.0000000000000000e+00  2.1671574262811168e-02 -2.4840378793158983e-04 0.0000000000000000e+00  3.0855584657133631e-02 4.2496061879874774e-05 0.0000000000000000e+00  1.8503721548612261e-02 2.3738162820569577e-04 0.0000000000000000e+00  3.0942722569597583e-02 8.3216278498686176e-04 0.0000000000000000e+00  2.0980523564474395e-02 8.0656655491968495e-04 0.0000000000000000e+00  2.4476166191492340e-02 1.2696731417207452e-03 0.0000000000000000e+00  2.4152620005815841e-02 1.5687666205909878e-03 0.0000000000000000e+00  2.2487491131237668e-02 1.7243348767380707e-03 0.0000000000000000e+00  2.4752250420856707e-02 2.1821823013935091e-03 0.0000000000000000e+00  2.2381487701698118e-02 2.2321012695256130e-03 0.0000000000000000e+00  2.0859385709802510e-02 2.3003512757718068e-03 0.0000000000000000e+00  3.0154299451135631e-02 3.6052471722446493e-03 0.0000000000000000e+00  2.2443186777577159e-02 2.9525791529808184e-03 0.0000000000000000e+00  2.2137824534083399e-02 3.1793986934852791e-03 0.0000000000000000e+00  2.2887292102056849e-02 3.5461930227842168e-03 0.0000000000000000e+00  2.3959352505542552e-02 3.9873002152886394e-03 0.0000000000000000e+00  2.1824328647759336e-02 3.8928657296215872e-03 0.0000000000000000e+00  2.1661158436087621e-02 4.1228873768163676e-03 0.0000000000000000e+00  2.1603252718770345e-02 4.3588241121084309e-03 0.0000000000000000e+00  2.2003407061046042e-02 4.7049668198966017e-03 0.0000000000000000e+00  2.2855600262408043e-02 5.1291708826904075e-03 0.0000000000000000e+00  2.3020907114707004e-02 5.4685788307191731e-03 0.0000000000000000e+00  1.9872737941255172e-02 5.0024661581671926e-03 0.0000000000000000e+00  2.79141528722378