<?xml version="1.0"?>
<VTKFile type="UnstructuredGrid"  version="0.1"  >
<UnstructuredGrid>
<Piece  NumberOfPoints="4290" NumberOfCells="6796">
<Points>
<DataArray  type="Float64"  NumberOfComponents="3"  format="ascii">0 0.01 0  10 0.01 0  0 1.016904071333261 0  10 1.016904071333261 0  0.007129524987038337 0.009997491741717768 0  0.01258064459049757 0.00999219056738478 0  0.01872173241756402 0.009982708334120727 0  0.02429919625640796 0.009970876572043954 0  0.03017238705920286 0.009955108531615313 0  0.03612352734296466 0.0099356743715591 0  0.04164979236492252 0.009914517792428084 0  0.04780928449023854 0.009887415768096998 0  0.05327287671237849 0.009860276931383746 0  0.0593436395885565 0.009826715421083503 0  0.06505608699933001 0.009791870631895848 0  0.07077243060783153 0.009753845329312128 0  0.07684085351634186 0.009710036052663748 0  0.08230528612367993 0.009667566921662384 0  0.08846525752759338 0.009616276826848907 0  0.09398926586603956 0.0095672187064786 0  0.09994377871281757 0.009511110804477986 0  0.10581288515308 0.009452550633355501 0  0.1113930001121819 0.009393893683773193 0  0.1175326299024069 0.009326020378011352 0  0.122983161250664 0.009262856809916281 0  0.1290978349347763 0.009188765415777931 0  0.1347300222736412 0.00911751981665075 0  0.1405327472005438 0.009041131768776852 0  0.1465421455697866 0.008958856277281909 0  0.1520341809431761 0.008880870879718691 0  0.1581991754706344 0.00879018143976357 0  0.1636834803794234 0.008706732874359017 0  0.1697073563005918 0.008612096527554045 0  0.1754901396361989 0.008518345936558386 0  0.1811391035120075 0.008424050210098115 0  0.1872444279222087 0.00831915423323064 0  0.1926961446341008 0.008222899998379215 0  0.198841090009393 0.008111516418624823 0  0.2044064770158165 0.008008028244452866 0  0.2102948627703611 0.007895869216798803 0  0.2162299794791283 0.007780085801116003 0  0.2217647046821167 0.007669675498109103 0  0.2279204403470532 0.007544154739747676 0  0.2333791472114919 0.007430485124751003 0  0.2394590817234977 0.0073013084386626 0  0.245152498789355 0.007177928079207972 0  0.2508861115607116 0.007051356111670669 0  0.2569419868439766 0.006915186417023598 0  0.2624099649457279 0.006790084113692359 0  0.2685711825796066 0.006646722567663751 0  0.274083748205357 0.006516341894728842 0  0.2800541704182985 0.00637292855786236 0  0.2859022845836161 0.006230279166502627 0  0.291495955429921 0.006091868246150131 0  0.2976275706217687 0.005937986548763313 0  0.3030757324287757 0.005799406374294222 0  0.3091980118239236 0.005641654227187252 0  0.3148109405089491 0.005495191514879527 0  0.3206341933715942 0.005341435282378838 0  0.3266248575896781 0.005181393525330103 0  0.3321252080346692 0.005032833254881577 0  0.3382880718234609 0.004864596209960478 0  0.3437628463580178 0.004713611578807419 0  0.3498021006600692 0.004545443593512952 0  0.3555594631656461 0.004383601001460968 0  0.3612291099056053 0.004222822711549606 0  0.3673210805066339 0.004048576418709386 0  0.3727746135437823 0.003891330909934085 0  0.3789246700786391 0.003712634483246944 0  0.3844721023230384 0.00355025746928806 0  0.3903845048135511 0.003376011435332509 0  0.3962935688476314 0.003200699755406988 0  0.4018430601204535 0.00303505085978487 0  0.4079921977692303 0.002850427660455144 0  0.4134449905916002 0.002685819499171436 0  0.4195385366679084 0.002500937932218923 0  0.425204482428441 0.002328206591247292 0  0.4309651825948974 0.00215183074136113 0  0.4370014133195289 0.001966263547608745 0  0.4424769325836848 0.00179732019881714 0  0.4486395183564056 0.001606544730410899 0  0.4541373275735043 0.001435838569361521 0  0.4601308451156257 0.001249254088784412 0  0.4659488863550298 0.001067707976620331 0  0.471564807260988 0.0008921302908496037 0  0.4776843759254726 0.0007004920228137959 0  0.4831317484445766 0.0005296836585198918 0  0.4892643513384632 0.0003372062279158936 0  0.4948528283485032 0.000161696161435303 0  0.5007056813361916 -2.216943068070812e-05 0  0.5066699093509902 -0.000209526046556915 0  0.5121845298566023 -0.0003826949545447442 0  0.5183439831944545 -0.0005759742926309219 0  0.5238088617282698 -0.0007472800272428554 0  0.5298681543527348 -0.0009369594486414562 0  0.5355929349139432 -0.001115856450691032 0  0.5412927239341832 -0.001293613669039852 0  0.5473668732672543 -0.001482588207084091 0  0.5528259073001393 -0.001651967505962102 0  0.5589819336317072 -0.001842386787779294 0  0.5645100189486582 -0.002012797049529044 0  0.5704524332663232 -0.002195301346534757 0  0.5763298911552834 -0.002375058665203144 0  0.5819006708717119 -0.002544689651648297 0  0.5880413281562127 -0.002730768313747055 0  0.5934904284812221 -0.002895042191696308 0  0.5995995320960693 -0.003078202338538874 0  0.605236779888003 -0.003246210954182579 0  0.6110299855290301 -0.003417806240976177 0  0.6170432999212266 -0.00359472323302265 0  0.6225307972792151 -0.00375505261922207 0  0.6286944373476531 -0.003933803567825084 0  0.6341794289295242 -0.004091634709336539 0  0.6401977648984302 -0.004263413669385436 0  0.6459846030577213 -0.004427148756161272 0  0.6516277670629291 -0.004585409549508515 0  0.6577342305863492 -0.004755038487876419 0  0.6631843111407589 -0.004904958327357115 0  0.6693271588517591 -0.005072208653571043 0  0.6748942591145469 -0.005222152905474348 0  0.6807781354428797 -0.005378892074409919 0  0.6867158102497221 -0.005535201343768038 0  0.6922478556369909 -0.005679100421160843 0  0.6984036264198542 -0.005837205328254034 0  0.7038624132928571 -0.005975584427524931 0  0.7099402809449575 -0.006127588021236129 0  0.7156361945945205 -0.006268012368771779 0  0.7213667017809595 -0.006407263887957157 0  0.7274241898103784 -0.006552202568912044 0  0.7328913375361901 -0.006680980644346233 0  0.7390522654079078 -0.006823736587757829 0  0.7445663161830813 -0.006949337256267011 0  0.7505345306161221 -0.007082931996795786 0  0.7563856967966242 -0.007211490056377221 0  0.7619775509571868 -0.007332073958440476 0  0.7681106054434813 -0.007461725199742056 0  0.7735594228940573 -0.007574589702563127 0  0.7796809699364847 -0.007698739982391196 0  0.7852974086111042 -0.007810142587226769 0  0.7911178568436495 -0.007923025648348906 0  0.797112403703894 -0.008036515862006795 0  0.8026119630288198 -0.008138129173272899 0  0.8087760180262171 -0.008249131188213875 0  0.814253500572072 -0.008345174877796967 0  0.8202905515677629 -0.008448166667805387 0  0.8260544286221699 -0.008543663134562481 0  0.831720415905675 -0.008634807324656511 0  0.8378167080097026 -0.008729817306667463 0  0.8432709709919499 -0.008812108559864256 0  0.8494209576248264 -0.008901791974276371 0  0.8549745826348545 -0.008979924427376591 0  0.8608814329347291 -0.009060026011188804 0  0.8667998142885592 -0.009137155111096256 0  0.8723460990452367 -0.009206568509458774 0  0.8784989383774584 -0.009280301817794542 0  0.8839552890388401 -0.009342788637451834 0  0.8900456692707091 -0.009409293585850673 0  0.8957233874467343 -0.009468190513990782 0  0.9014754209053449 -0.009524786393944277 0  0.9075213579987256 -0.009580921173179099 0  0.9129954731058688 -0.009628765913494807 0  0.9191593188847452 -0.009679229788646495 0  0.9246655330424429 -0.009721240864333262 0  0.9306503084472221 -0.009763603884533442 0  0.9364847200361547 -0.009801580348484516 0  0.9420914259676206 -0.009834972127394636 0  0.948219177636862 -0.009867976960504428 0  0.9536688877131657 -0.009894257783109666 0  0.9597979104438458 -0.009920349306153329 0  0.9654020314719589 -0.009940987600901847 0  0.9712398170272581 -0.009959209624459757 0  0.9772219132298864 -0.009974407121723252 0  0.9827297975109929 -0.009985285083248089 0  0.9888934840407251 -0.009993913310034224 0  0.9943667421923366 -0.009998434045983932 0  1.000414962337846 -0.009999991502249178 0  1.00616395254491 -0.009998125110441144 0  1.011844857354635 -0.009993077234903055 0  1.017933801412069 -0.009984132829796667 0  1.023390946643176 -0.00997301205183276 0  1.029544679732296 -0.009956955598792184 0  1.035089558108845 -0.009939300412459717 0  1.041010936359372 -0.009917116481575694 0  1.04691554237944 -0.00989157814857561 0  1.052471258615448 -0.009864440751261633 0  1.05862104751389 -0.009830897850136421 0  1.064075481579663 -0.009798076706746352 0  1.070173358231585 -0.009757978136698224 0  1.075837941143087 -0.00971752009646258 0  1.081604377355612 -0.009673173917302162 0  1.087640686528322 -0.009623351755525641 0  1.093119387704205 -0.009575135453199036 0  1.099284093826516 -0.009517491101966447 0  1.104783734376909 -0.009463052176492596 0  1.110779897618174 -0.009400480030121557 0  1.116599992234411 -0.00933655469875222 0  1.122217899723542 -0.009271889359757672 0  1.128339818747432 -0.009198135031144493 0  1.133789446190431 -0.00912961705214143 0  1.139923317158062 -0.009049295973540348 0  1.145515844317945 -0.008973134373133167 0  1.151367773813766 -0.008890475161473248 0  1.157336906671575 -0.008803064948780913 0  1.16285160438384 -0.008719557366803981 0  1.16901331600552 -0.008623157866544266 0  1.174481522907442 -0.00853490108265173 0  1.180539122189597 -0.008434191931863186 0  1.186271617394136 -0.008336073959344166 0  1.191966996821913 -0.008235914041393521 0  1.198046448076202 -0.008126091334838595 0  1.203505695906331 -0.008024945109277802 0  1.209661806077474 -0.007908057515838151 0  1.21519584913737 -0.007800455577732041 0  1.221132109188887 -0.00768241304184519 0  1.227019087412133 -0.007562711583992629 0  1.232585135446325 -0.007447155722966398 0  1.238729389023077 -0.007316953404904543 0  1.244180486899644 -0.007199156086382225 0  1.250286093435722 -0.007064709646262071 0  1.255932842016573 -0.006938052500145445 0  1.261716857103797 -0.006806053534187844 0  1.26773845151126 -0.006666245775332091 0  1.273222687278595 -0.006536836953056475 0  1.279386853652711 -0.00638906998029936 0  1.284876650734994 -0.006255450389977176 0  1.290887326898431 -0.00610702037198264 0  1.296685536664392 -0.00596177282270944 0  1.30231949087952 -0.005818744638503708 0  1.308431215520824
[...]
<PointData  Vectors="Traction"> 
<DataArray  type="Float64"  Name="Traction"  NumberOfComponents="3" format="ascii">1.8551522004748033e-05 1.3247293986084001e-02 0.0000000000000000e+00  1.8551522004748033e-05 1.3247293986084001e-02 0.0000000000000000e+00  -6.4851061445720753e-09 -5.7478939903946196e-09 0.0000000000000000e+00  -6.4851061445720753e-09 -5.7478939903946196e-09 0.0000000000000000e+00  -6.6300184558232159e-04 2.2308083139037729e-02 0.0000000000000000e+00  -1.0185186647622970e-03 2.0275664939299332e-02 0.0000000000000000e+00  -1.3840891635975895e-03 1.8794515897193578e-02 0.0000000000000000e+00  -1.9590200029547594e-03 2.0751067428936600e-02 0.0000000000000000e+00  -2.1017894077839504e-03 1.7855232044894771e-02 0.0000000000000000e+00  -3.4022770316089221e-03 2.4302716355141404e-02 0.0000000000000000e+00  -2.5511744566248449e-03 1.5874179187155387e-02 0.0000000000000000e+00  -3.4590347093451461e-03 1.8603215071478781e-02 0.0000000000000000e+00  -4.1379951927836807e-03 1.9792645571964366e-02 0.0000000000000000e+00  -3.8549386879418064e-03 1.6471540780088036e-02 0.0000000000000000e+00  -6.0561437705555152e-03 2.3691312934285596e-02 0.0000000000000000e+00  -4.2834481036738209e-03 1.5423905967113708e-02 0.0000000000000000e+00  -7.3886550554945639e-03 2.4214781158694597e-02 0.0000000000000000e+00  -5.1430253062614067e-03 1.5785776700661842e-02 0.0000000000000000e+00  -6.3634139677037063e-03 1.8090099897347427e-02 0.0000000000000000e+00  -7.6014804101938735e-03 2.0053103972589744e-02 0.0000000000000000e+00  -7.0601378289402994e-03 1.7433716691962229e-02 0.0000000000000000e+00  -7.6496148952841323e-03 1.7728389597949892e-02 0.0000000000000000e+00  -8.7062064911583165e-03 1.9035666997886135e-02 0.0000000000000000e+00  -9.1416390713180817e-03 1.8855467116624794e-02 0.0000000000000000e+00  -8.8753180562170259e-03 1.7508073423167403e-02 0.0000000000000000e+00  -9.2579853207987919e-03 1.7371383472625890e-02 0.0000000000000000e+00  -9.7627117603884973e-03 1.7450106289471027e-02 0.0000000000000000e+00  -9.6049782736514974e-03 1.6378720253899498e-02 0.0000000000000000e+00  -1.3796142632018355e-02 2.2336643164905690e-02 0.0000000000000000e+00  -1.0691256835516912e-02 1.6744515082378508e-02 0.0000000000000000e+00  -1.1282139271174199e-02 1.6930625266945588e-02 0.0000000000000000e+00  -1.0539602934444664e-02 1.5216949541934782e-02 0.0000000000000000e+00  -1.1339741175852585e-02 1.5574164363503104e-02 0.0000000000000000e+00  -1.6402541784978780e-02 2.1476465781698539e-02 0.0000000000000000e+00  -1.1923510916738125e-02 1.5143675399032981e-02 0.0000000000000000e+00  -1.2265459348833189e-02 1.4908526121249498e-02 0.0000000000000000e+00  -1.8221650599311263e-02 2.1233830602427783e-02 0.0000000000000000e+00  -1.1724866434293504e-02 1.3224599699591236e-02 0.0000000000000000e+00  -1.8825880751339494e-02 2.0457300040873719e-02 0.0000000000000000e+00  -1.1609791788961781e-02 1.2159675183726128e-02 0.0000000000000000e+00  -1.9608959438503281e-02 1.9773782937405837e-02 0.0000000000000000e+00  -1.3917791604090570e-02 1.3561743893082552e-02 0.0000000000000000e+00  -1.4542543543574966e-02 1.3632304541603956e-02 0.0000000000000000e+00  -2.0935082536322983e-02 1.8900435620627362e-02 0.0000000000000000e+00  -1.2724598783739197e-02 1.1107847148256913e-02 0.0000000000000000e+00  -2.2001195613995030e-02 1.8495934470318373e-02 0.0000000000000000e+00  -1.4764433900280581e-02 1.2009475036387754e-02 0.0000000000000000e+00  -2.3705020061321969e-02 1.8583238200546623e-02 0.0000000000000000e+00  -1.6112528190858164e-02 1.2309461936260252e-02 0.0000000000000000e+00  -1.8448398886541827e-02 1.3575110253824204e-02 0.0000000000000000e+00  -2.0464532883634097e-02 1.4458582851139023e-02 0.0000000000000000e+00  -1.7844719221978892e-02 1.2163284308829368e-02 0.0000000000000000e+00  -2.4457221998412219e-02 1.6037251101664245e-02 0.0000000000000000e+00  -1.7254932041570793e-02 1.0992870597112771e-02 0.0000000000000000e+00  -2.0447730945340258e-02 1.2529468634107132e-02 0.0000000000000000e+00  -1.8878377157597513e-02 1.1157245053925199e-02 0.0000000000000000e+00  -2.7021742004478225e-02 1.5323384206130905e-02 0.0000000000000000e+00  -1.7765251801940420e-02 9.8396891880030909e-03 0.0000000000000000e+00  -1.8019137804892348e-02 9.6075645377580818e-03 0.0000000000000000e+00  -2.8178588818770302e-02 1.4319136193254435e-02 0.0000000000000000e+00  -1.9845193470378768e-02 9.7396167131026876e-03 0.0000000000000000e+00  -1.9322050543432803e-02 9.0606003774820320e-03 0.0000000000000000e+00  -2.8570901680818092e-02 1.2918043940845250e-02 0.0000000000000000e+00  -1.8837611183259047e-02 8.1438484780525424e-03 0.0000000000000000e+00  -3.0169327050530305e-02 1.2457088171938909e-02 0.0000000000000000e+00  -1.9934247967848318e-02 7.9306308707045269e-03 0.0000000000000000e+00  -2.3547664113788169e-02 8.9781772109386003e-03 0.0000000000000000e+00  -2.5081210986411726e-02 9.0811180612136670e-03 0.0000000000000000e+00  -2.2818734074522399e-02 7.8916767895492457e-03 0.0000000000000000e+00  -2.3395782335247872e-02 7.7142713605867341e-03 0.0000000000000000e+00  -2.5771371038221517e-02 8.0661710765689756e-03 0.0000000000000000e+00  -2.4132993035010455e-02 7.1926436245330246e-03 0.0000000000000000e+00  -2.4812613130016755e-02 7.0472496366454709e-03 0.0000000000000000e+00  -2.6416638262119558e-02 7.0859190346897463e-03 0.0000000000000000e+00  -2.5256151887254309e-02 6.4121487572421677e-03 0.0000000000000000e+00  -2.5185541610173310e-02 6.0077941874722629e-03 0.0000000000000000e+00  -2.6486927671512169e-02 5.8824383139880294e-03 0.0000000000000000e+00  -2.2793088336179868e-02 4.7240704345094617e-03 0.0000000000000000e+00  -3.2611126157440828e-02 6.3017856399537418e-03 0.0000000000000000e+00  -2.2518651309469940e-02 4.0563562616143210e-03 0.0000000000000000e+00  -2.6824575860242249e-02 4.4287131830252190e-03 0.0000000000000000e+00  -2.5930737097789744e-02 3.8883237906896279e-03 0.0000000000000000e+00  -2.3403456775859862e-02 3.1897143681779466e-03 0.0000000000000000e+00  -3.3203445913397030e-02 4.1050554130851397e-03 0.0000000000000000e+00  -2.4024954999275334e-02 2.5954637725059183e-03 0.0000000000000000e+00  -2.3977383419787578e-02 2.2356490944188175e-03 0.0000000000000000e+00  -3.3585444463612835e-02 2.6786923631582134e-03 0.0000000000000000e+00  -2.4154904939131694e-02 1.5633178390566352e-03 0.0000000000000000e+00  -2.5624954132771240e-02 1.3088010595610244e-03 0.0000000000000000e+00  -2.6396465156887663e-02 9.7519828443558255e-04 0.0000000000000000e+00  -2.7097670139908485e-02 5.9991174966589767e-04 0.0000000000000000e+00  -2.6551755080741840e-02 2.1087811462427663e-04 0.0000000000000000e+00  -2.6633605939607889e-02 -1.7097009769113510e-04 0.0000000000000000e+00  -2.7591886481964537e-02 -5.5891508494461753e-04 0.0000000000000000e+00  -2.4442271545114864e-02 -8.3653927691028287e-04 0.0000000000000000e+00  -3.4271170639349875e-02 -1.6262727800310890e-03 0.0000000000000000e+00  -2.4555151659499497e-02 -1.4828016276605919e-03 0.0000000000000000e+00  -2.5157585749314596e-02 -1.8585211334176924e-03 0.0000000000000000e+00  -3.4974917017400679e-02 -3.0110795419617301e-03 0.0000000000000000e+00  -2.2211817670047766e-02 -2.2077173131978232e-03 0.0000000000000000e+00  -3.4810015311764801e-02 -3.8840414813255128e-03 0.0000000000000000e+00  -2.4891493059391274e-02 -3.1190160679533067e-03 0.0000000000000000e+00  -2.6094623888861034e-02 -3.6227770272334765e-03 0.0000000000000000e+00  -2.6298618023831138e-02 -3.9782468689363712e-03 0.0000000000000000e+00  -2.7317408885996246e-02 -4.5282785232089928e-03 0.0000000000000000e+00  -2.5578415586319559e-02 -4.6226436614175961e-03 0.0000000000000000e+00  -2.4534917500226940e-02 -4.8342354185848023e-03 0.0000000000000000e+00  -3.4563198227204994e-02 -7.2615597259782271e-03 0.0000000000000000e+00  -2.5793359397943937e-02 -5.8662809951948482e-03 0.0000000000000000e+00  -2.5374969146708736e-02 -6.2273801102637281e-03 0.0000000000000000e+00  -2.5387905692359432e-02 -6.5967790887969330e-03 0.0000000000000000e+00  -2.5778041054727054e-02 -7.0876148363249840e-03 0.0000000000000000e+00  -2.5413106668940481e-02 -7.4609108152615443e-03 0.0000000000000000e+00  -2.5521594352205565e-02 -7.8923318856306962e-03 0.0000000000000000e+00  -2.6141913797065472e-02 -8.4676225978720064e-03 0.0000000000000000e+00  -2.3351001418682040e-02 -7.9837661117725701e-03 0.0000000000000000e+00  -3.2204113669491170e-02 -1.1573201014509494e-02 0.0000000000000000e+00  -2.1448259536991945e-02 -8.0567996363545800e-03 0.0000000000000000e+00  -2.3061944750312400e-02 -9.0870479074223621e-03 0.0000000000000000e+00  -3.2061783282686905e-02 -1.3040407045761525e-02 0.0000000000000000e+00  -2.2449186781242556e-02 -9.5798219985432642e-03 0.0000000000000000e+00  -3.1656691252736159e-02 -1.3985001987593252e-02 0.0000000000000000e+00  -2.2395413430830291e-02 -1.0317229740999226e-02 0.0000000000000000e+00  -2.0667314359753185e-02 -9.9678278025530035e-03 0.0000000000000000e+00  -2.2286219181829273e-02 -1.1122096325695354e-02 0.0000000000000000e+00  -2.4149947512886429e-02 -1.2479949897576408e-02 0.0000000000000000e+00  -2.3393107938979519e-02 -1.2550084219641556e-02 0.0000000000000000e+00  -2.0296489228637145e-02 -1.1347306564914833e-02 0.0000000000000000e+00  -2.7807760151289537e-02 -1.6104911392767336e-02 0.0000000000000000e+00  -2.0278101726839956e-02 -1.2203147804014778e-02 0.0000000000000000e+00  -2.0633906551565426e-02 -1.2944112998815246e-02 0.0000000000000000e+00  -2.0874959670223486e-02 -1.3518975058866105e-02 0.0000000000000000e+00  -1.9694767513341916e-02 -1.3270193727042497e-02 0.0000000000000000e+00  -1.9970439398774929e-02 -1.4009269149485946e-02 0.0000000000000000e+00  -2.1294384943438546e-02 -1.5443625847647056e-02 0.0000000000000000e+00  -2.0623690078539765e-02 -1.5603930238402636e-02 0.0000000000000000e+00  -1.9721026205055267e-02 -1.5530284114112249e-02 0.0000000000000000e+00  -1.8906784570687916e-02 -1.5503406660195146e-02 0.0000000000000000e+00  -1.9657849095387685e-02 -1.6711392918179375e-02 0.0000000000000000e+00  -1.7771300488410770e-02 -1.5772481139674437e-02 0.0000000000000000e+00  -1.6955433259057930e-02 -1.5692338617971608e-02 0.0000000000000000e+00  -1.8938297322816731e-02 -1.8205444920848746e-02 0.0000000000000000e+00  -1.6687069427554067e-02 -1.6769814429876840e-02 0.0000000000000000e+00  -1.6309862395296294e-02 -1.6997086064841599e-02 0.0000000000000000e+00  -1.6990826175502551e-02 -1.8420300937782255e-02 0.0000000000000000e+00  -1.5418559789442737e-02 -1.7399247876513840e-02 0.0000000000000000e+00  -1.4650936442597363e-02 -1.7273285279712954e-02 0.0000000000000000e+00  -1.9673938011090464e-02 -2.4087671127867680e-02 0.0000000000000000e+00  -1.3093676949099296e-02 -1.6727505670096739e-02 0.0000000000000000e+00  -1.3460336109173097e-02 -1.8089435162159481e-02 0.0000000000000000e+00  -1.4044522310658857e-02 -1.9704455367933443e-02 0.0000000000000000e+00  -1.2522194392621146e-02 -1.8480617388637110e-02 0.0000000000000000e+00  -1.1793320078032842e-02 -1.8289998454867208e-02 0.0000000000000000e+00  -1.2902705520021457e-02 -2.1037556496617545e-02 0.0000000000000000e+00  -1.1146816258775342e-02 -1.9281710358053549e-02 0.0000000000000000e+00  -1.0701224276633012e-02 -1.9471032558998704e-02 0.0000000000000000e+00  -1.0863941354907923e-02 -2.0953604287246234e-02 0.0000000000000000e+00  -9.6336843808396810e-03 -1.9695658248182615e-02 0.0000000000000000e+00  -8.7784910111779434e-03 -1.9105176861659870e-02 0.0000000000000000e+00  -1.1499236468901173e-02 -2.6548979828772655e-02 0.0000000000000000e+00  -7.3867500310392251e-03 -1.8170995010294018e-02 0.0000000000000000e+00  -7.4658628918925400e-03 -1.9906298019093251e-02 0.0000000000000000e+00  -7.5285735947176547e-03 -2.1623454199538351e-02 0.0000000000000000e+00  -6.4074803938121835e-03 -2.0110265716508258e-02 0.0000000000000000e+00  -5.7528615956048568e-03 -1.9743426879630516e-02 0.0000000000000000e+00  -5.9758174803315129e-03 -2.2606510599174606e-02 0.0000000000000000e+00  -4.8346059927367882e-03 -2.0529544451505791e-02 0.0000000000000000e+00  -4.3806534546120294e-03 -2.0704373009920920e-02 0.0000000000000000e+00  -4.0800840183940756e-03 -2.2161895427435220e-02 0.0000000000000000e+00  -3.2712662844418387e-03 -2.0596086130929385e-02 0.0000000000000000e+00  -2.6595994995338434e-03 -2.0225535413458014e-02 0.0000000000000000e+00  -2.9865077273671155e-03 -2.8003348126735803e-02 0.0000000000000000e+00  -1.6045761772004888e-03 -1.9339089541378793e-02 0.0000000000000000e+00  -1.1075854964010356e-03 -2.0614030380247152e-02 0.0000000000000000e+00  -6.4430901442863800e-04 -2.2273438368527947e-02 0.0000000000000000e+00  -3.4248196568703637e-05 -2.0828567573134858e-02 0.0000000000000000e+00  4.9274445331775956e-04 -2.0247648208203697e-02 0.0000000000000000e+00  1.1883952269023639e-03 -2.3210503781175593e-02 0.0000000000000000e+00  1.6501033812092981e-03 -2.0912486299692466e-02 0.0000000000000000e+00  2.1600705301978384e-03 -2.0993677201667213e-02 0.0000000000000000e+00  2.9372441619375730e-03 -2.2382203749287417e-02 0.0000000000000000e+00  3.2456098429444677e-03 -2.0729911249291261e-02 0.0000000000000000e+00  3.6311522578278549e-03 -1.9724114670812379e-02 0.0000000000000000e+00  5.8196878472739164e-03 -2.7582491732132040e-02 0.0000000000000000e+00  4.4362304292426156e-03 -1.8896359234321546e-02 0.0000000000000000e+00  5.3675749004608352e-03 -2.0315423516727060e-02 0.0000000000000000e+00  6.3662425277694742e-03 -2.1889613279494069e-02 0.0000000000000000e+00  6.4771173614078976e-03 -2.0275845798988633e-02 0.0000000000000000e+00  6.8425160741441074e-03 -1.9718251617673963e-02 0.0000000000000000e+00  8.5036675003854791e-03 -2.2581310108021765e-02 0.0000000000000000e+00  7.4980305100408031e-03 -1.8419870025472320e-02 0.0000000000000000e+00  1.1068851287974904e-02 -2.5554645139715809e-02 0.0000000000000000e+00  8.4784623761056249e-03 -1.8316257889076558e-02 0.0000000000000000e+00  9.6277229367943504e-03 -1.9587819003501275e-02 0.0000000000000000e+00  1.0272701795380115e-02 -1.9653750683766472e-02 0.0000000000000000e+00  1.1501539860749931e-02 -2.0719340041461972e-02 0.0000000000000000e+00  1.0548055255460386e-02 -1.8031244346542331e-02 0.0000000000000000e+00  1.4962983842585490e-02 -2.4300690596760238e-02 0.0000000000000000e+00  1.1447067568433292e-02 -1.7759425653526822e-02 0.0000000000000000e+00  1.2294357398859555e-02 -1.8150437587685288e-02 0.0000000000000000e+00  1.2949556739415065e-02 -1.8334428152457082e-02 0.0000000000000000e+00  1.3875235895138074e-02 -1.8672296391291306e-02 0.0000000000000000e+00  1.3980032685099548e-02 -1.8016622106548173e-02 0.0000000000000000e+00  1.3927914722039221e-02 -1.7285079147654845e-02 0.0000000000000000e+00  1.5096225083565767e-02 -1.7721586442712253e-02 0.0000000000000000e+00  1.5314364127217706e-02 -1.7369410130127265e-02 0.0000000000000000e+00  1.5944589210375039e-02 -1.7365978960512604e-02 0.0000000000000000e+00  1.6988110803770776e-02 -1.7644532075612694e-02 0.0000000000000000e+00  1.5622959841356424e-02 -1.5612734627192907e-02 0.0000000000000000e+00  2.1894926191234766e-02 -2.1022929517210256e-02 0.0000000000000000e+00  1.6537505886851888e-02 -1.5278028699148937e-02 0.0000000000000000e+00  1.7495311197743297e-02 -1.5549322979584588e-02 0.0000000000000000e+00  1.7871020232463602e-02 -1.5331373063482633e-02 0.0000000000000000e+00  1.8943837335108793e-02 -1.5513807983572592e-02 0.0000000000000000e+00  1.8770671957579033e-02 -1.4845222613542980e-02 0.0000000000000000e+00  1.8623115751689207e-02 -1.4256186998349936e-02 0.0000000000000000e+00  2.0032034716694423e-02 -1.4654595401558963e-02 0.0000000000000000e+00  2.0660462499437284e-02 -1.4676399969563438e-02 0.0000000000000000e+00  2.0337319371804510e-02 -1.3867113511739120e-02 0.0000000000000000e+00  2.2170206527823286e-02 -1.4502858812907643e-02 0.0000000000000000e+00  2.0381912547197092e-02 -1.2878219826928886e-02 0.0000000000000000e+00  2.7589726057915272e-02 -1.6857865327188422e-02 0.0000000000000000e+00  2.0803253506677812e-02 -1.2293509386773135e-02 0.0000000000000000e+00  2.1817762255787777e-02 -1.2395431604148643e-02 0.0000000000000000e+00  2.2379340209112513e-02 -1.2260860088392313e-02 0.0000000000000000e+00  2.4146161010815726e-02 -1.2685099019611535e-02 0.0000000000000000e+00  2.3474647023196564e-02 -1.1935257294153885e-02 0.0000000000000000e+00  2.0945029225754863e-02 -1.0270405458789060e-02 0.0000000000000000e+00  3.1062289978351715e-02 -1.4535327921978173e-02 0.0000000000000000e+00  2.1017170518849881e-02 -9.5060476209512541e-03 0.0000000000000000e+00  2.3846933150624826e-02 -1.0291653951562415e-02 0.0000000000000000e+00  2.5303923445337082e-02 -1.0401306616723352e-02 0.0000000000000000e+00  2.3145131970319699e-02 -9.1010365273805540e-03 0.0000000000000000e+00  3.1547098170783314e-02 -1.1855161725572362e-02 0.0000000000000000e+00  2.3587064140349733e-02 -8.4427365000041363e-03 0.0000000000000000e+00  2.3819345365140420e-02 -8.0660410501986676e-03 0.0000000000000000e+00  2.4899600895082193e-02 -7.9960721565547725e-03 0.0000000000000000e+00  2.7289988032753038e-02 -8.2661098921587468e-03 0.0000000000000000e+00  2.5450219376067597e-02 -7.3388556127734457e-03 0.0000000000000000e+00  2.6303576748789689e-02 -7.2097349627279119e-03 0.0000000000000000e+00  2.7561775163632739e-02 -7.0928103291228910e-03 0.0000000000000000e+00  2.6331544469257031e-02 -6.3919335869240474e-03 0.0000000000000000e+00  2.3858852056658546e-02 -5.4051687859473820e-03 0.0000000000000000e+00  3.5029526983581576e-02 -7.3591044590618215e-03 0.0000000000000000e+00  2.2855842753710567e-02 -4.4679708814361402e-03 0.0000000000000000e+00  3.4308662341941354e-02 -6.1832767496691060e-03 0.0000000000000000e+00  2.4739375254752557e-02 -4.0975550636006778e-03 0.0000000000000000e+00  2.4190125808196582e-02 -3.6506621697106147e-03 0.0000000000000000e+00  3.4088302802278626e-02 -4.7117567763431374e-03 0.0000000000000000e+00  2.4639066339872208e-02 -3.0815538209279223e-03 0.0000000000000000e+00  2.6162356711556534e-02 -2.9241024913167222e-03 0.0000000000000000e+00  2.7048954393884089e-02 -2.6382167902627893e-03 0.0000000000000000e+00  2.7771091943736718e-02 -2.2742267793103301e-03 0.0000000000000000e+00  2.7276649702095077e-02 -1.8505970061677530e-03 0.0000000000000000e+00  2.7175920259960899e-02 -1.4482200827083244e-03 0.0000000000000000e+00  2.8005557488010153e-02 -1.0742288934571394e-03 0.0000000000000000e+00  2.4401263935003324e-02 -5.9835069500825103e-04 0.0000000000000000e+00  3.4768159153148077e-02 -3.6179975550001557e-04 0.0000000000000000e+00  2.0845139481279654e-02 6.3281758769923431e-05 0.0000000000000000e+00  3.4884118375790342e-02 6.2482331950655548e-04 0.0000000000000000e+00  2.3656698267086305e-02 7.4779754767580881e-04 0.0000000000000000e+00  2.7598506475774481e-02 1.2757720412668891e-03 0.0000000000000000e+00  2.7252515400295961e-02 1.6556990120594852e-03 0.0000000000000000e+00  2.5391231891309290e-02 1.8771228830767289e-03 0.0000000000000000e+00  2.7947510289952703e-02 2.4337671536471621e-03 0.0000000000000000e+00  2.5264707333243878e-02 2.5371401746583900e-03 0.0000000000000000e+00  2.3657361745460976e-02 2.6600948416910745e-03 0.0000000000000000e+00  3.4145191681290155e-02 4.2127753326713559e-03 0.0000000000000000e+00  2.5447699944508986e-02 3.4749681152373146e-03 0.0000000000000000e+00  2.5139211010192050e-02 3.7775368727660415e-03 0.0000000000000000e+00  2.6103047157372820e-02 4.2445515945036070e-03 0.0000000000000000e+00  2.7415425880102432e-02 4.8094619470185930e-03 0.0000000000000000e+00  2.5400334613061008e-02 4.8039143486724506e-03 0.0000000000000000e+00  2.4859047674868903e-02 5.0571109365320647e-03 0.0000000000000000e+00  2.4874510185572265e-02 5.4234892781501757e-03 0.0000000000000000e+00  2.2374136019820808e-02 5.2479093814381790e-03 0.0000000000000000e+00  3.2819321615365167e-02 8.1333208966909119e-03 0.0000000000000000e+00  2.2686981911155771e-02 6.0020912777985656e-03 0.0000000000000000e+00  2.1762869871121710e-02 6.0987583073839136e-03 0.0000000000000000e+00  3.2212640175