<?xml version="1.0"?>
<VTKFile type="UnstructuredGrid"  version="0.1"  >
<UnstructuredGrid>
<Piece  NumberOfPoints="4286" NumberOfCells="6788">
<Points>
<DataArray  type="Float64"  NumberOfComponents="3"  format="ascii">0 0.01 0  10 0.01 0  0 1.014426169383459 0  10 1.014426169383459 0  0.007129524987038337 0.009997491741717768 0  0.01258064459049757 0.00999219056738478 0  0.01872173241756402 0.009982708334120727 0  0.02429919625640796 0.009970876572043954 0  0.03017238705920286 0.009955108531615313 0  0.03612352734296466 0.0099356743715591 0  0.04164979236492252 0.009914517792428084 0  0.04780928449023854 0.009887415768096998 0  0.05327287671237849 0.009860276931383746 0  0.0593436395885565 0.009826715421083503 0  0.06505608699933001 0.009791870631895848 0  0.07077243060783153 0.009753845329312128 0  0.07684085351634186 0.009710036052663748 0  0.08230528612367993 0.009667566921662384 0  0.08846525752759338 0.009616276826848907 0  0.09398926586603956 0.0095672187064786 0  0.09994377871281757 0.009511110804477986 0  0.10581288515308 0.009452550633355501 0  0.1113930001121819 0.009393893683773193 0  0.1175326299024069 0.009326020378011352 0  0.122983161250664 0.009262856809916281 0  0.1290978349347763 0.009188765415777931 0  0.1347300222736412 0.00911751981665075 0  0.1405327472005438 0.009041131768776852 0  0.1465421455697866 0.008958856277281909 0  0.1520341809431761 0.008880870879718691 0  0.1581991754706344 0.00879018143976357 0  0.1636834803794234 0.008706732874359017 0  0.1697073563005918 0.008612096527554045 0  0.1754901396361989 0.008518345936558386 0  0.1811391035120075 0.008424050210098115 0  0.1872444279222087 0.00831915423323064 0  0.1926961446341008 0.008222899998379215 0  0.198841090009393 0.008111516418624823 0  0.2044064770158165 0.008008028244452866 0  0.2102948627703611 0.007895869216798803 0  0.2162299794791283 0.007780085801116003 0  0.2217647046821167 0.007669675498109103 0  0.2279204403470532 0.007544154739747676 0  0.2333791472114919 0.007430485124751003 0  0.2394590817234977 0.0073013084386626 0  0.245152498789355 0.007177928079207972 0  0.2508861115607116 0.007051356111670669 0  0.2569419868439766 0.006915186417023598 0  0.2624099649457279 0.006790084113692359 0  0.2685711825796066 0.006646722567663751 0  0.274083748205357 0.006516341894728842 0  0.2800541704182985 0.00637292855786236 0  0.2859022845836161 0.006230279166502627 0  0.291495955429921 0.006091868246150131 0  0.2976275706217687 0.005937986548763313 0  0.3030757324287757 0.005799406374294222 0  0.3091980118239236 0.005641654227187252 0  0.3148109405089491 0.005495191514879527 0  0.3206341933715942 0.005341435282378838 0  0.3266248575896781 0.005181393525330103 0  0.3321252080346692 0.005032833254881577 0  0.3382880718234609 0.004864596209960478 0  0.3437628463580178 0.004713611578807419 0  0.3498021006600692 0.004545443593512952 0  0.3555594631656461 0.004383601001460968 0  0.3612291099056053 0.004222822711549606 0  0.3673210805066339 0.004048576418709386 0  0.3727746135437823 0.003891330909934085 0  0.3789246700786391 0.003712634483246944 0  0.3844721023230384 0.00355025746928806 0  0.3903845048135511 0.003376011435332509 0  0.3962935688476314 0.003200699755406988 0  0.4018430601204535 0.00303505085978487 0  0.4079921977692303 0.002850427660455144 0  0.4134449905916002 0.002685819499171436 0  0.4195385366679084 0.002500937932218923 0  0.425204482428441 0.002328206591247292 0  0.4309651825948974 0.00215183074136113 0  0.4370014133195289 0.001966263547608745 0  0.4424769325836848 0.00179732019881714 0  0.4486395183564056 0.001606544730410899 0  0.4541373275735043 0.001435838569361521 0  0.4601308451156257 0.001249254088784412 0  0.4659488863550298 0.001067707976620331 0  0.471564807260988 0.0008921302908496037 0  0.4776843759254726 0.0007004920228137959 0  0.4831317484445766 0.0005296836585198918 0  0.4892643513384632 0.0003372062279158936 0  0.4948528283485032 0.000161696161435303 0  0.5007056813361916 -2.216943068070812e-05 0  0.5066699093509902 -0.000209526046556915 0  0.5121845298566023 -0.0003826949545447442 0  0.5183439831944545 -0.0005759742926309219 0  0.5238088617282698 -0.0007472800272428554 0  0.5298681543527348 -0.0009369594486414562 0  0.5355929349139432 -0.001115856450691032 0  0.5412927239341832 -0.001293613669039852 0  0.5473668732672543 -0.001482588207084091 0  0.5528259073001393 -0.001651967505962102 0  0.5589819336317072 -0.001842386787779294 0  0.5645100189486582 -0.002012797049529044 0  0.5704524332663232 -0.002195301346534757 0  0.5763298911552834 -0.002375058665203144 0  0.5819006708717119 -0.002544689651648297 0  0.5880413281562127 -0.002730768313747055 0  0.5934904284812221 -0.002895042191696308 0  0.5995995320960693 -0.003078202338538874 0  0.605236779888003 -0.003246210954182579 0  0.6110299855290301 -0.003417806240976177 0  0.6170432999212266 -0.00359472323302265 0  0.6225307972792151 -0.00375505261922207 0  0.6286944373476531 -0.003933803567825084 0  0.6341794289295242 -0.004091634709336539 0  0.6401977648984302 -0.004263413669385436 0  0.6459846030577213 -0.004427148756161272 0  0.6516277670629291 -0.004585409549508515 0  0.6577342305863492 -0.004755038487876419 0  0.6631843111407589 -0.004904958327357115 0  0.6693271588517591 -0.005072208653571043 0  0.6748942591145469 -0.005222152905474348 0  0.6807781354428797 -0.005378892074409919 0  0.6867158102497221 -0.005535201343768038 0  0.6922478556369909 -0.005679100421160843 0  0.6984036264198542 -0.005837205328254034 0  0.7038624132928571 -0.005975584427524931 0  0.7099402809449575 -0.006127588021236129 0  0.7156361945945205 -0.006268012368771779 0  0.7213667017809595 -0.006407263887957157 0  0.7274241898103784 -0.006552202568912044 0  0.7328913375361901 -0.006680980644346233 0  0.7390522654079078 -0.006823736587757829 0  0.7445663161830813 -0.006949337256267011 0  0.7505345306161221 -0.007082931996795786 0  0.7563856967966242 -0.007211490056377221 0  0.7619775509571868 -0.007332073958440476 0  0.7681106054434813 -0.007461725199742056 0  0.7735594228940573 -0.007574589702563127 0  0.7796809699364847 -0.007698739982391196 0  0.7852974086111042 -0.007810142587226769 0  0.7911178568436495 -0.007923025648348906 0  0.797112403703894 -0.008036515862006795 0  0.8026119630288198 -0.008138129173272899 0  0.8087760180262171 -0.008249131188213875 0  0.814253500572072 -0.008345174877796967 0  0.8202905515677629 -0.008448166667805387 0  0.8260544286221699 -0.008543663134562481 0  0.831720415905675 -0.008634807324656511 0  0.8378167080097026 -0.008729817306667463 0  0.8432709709919499 -0.008812108559864256 0  0.8494209576248264 -0.008901791974276371 0  0.8549745826348545 -0.008979924427376591 0  0.8608814329347291 -0.009060026011188804 0  0.8667998142885592 -0.009137155111096256 0  0.8723460990452367 -0.009206568509458774 0  0.8784989383774584 -0.009280301817794542 0  0.8839552890388401 -0.009342788637451834 0  0.8900456692707091 -0.009409293585850673 0  0.8957233874467343 -0.009468190513990782 0  0.9014754209053449 -0.009524786393944277 0  0.9075213579987256 -0.009580921173179099 0  0.9129954731058688 -0.009628765913494807 0  0.9191593188847452 -0.009679229788646495 0  0.9246655330424429 -0.009721240864333262 0  0.9306503084472221 -0.009763603884533442 0  0.9364847200361547 -0.009801580348484516 0  0.9420914259676206 -0.009834972127394636 0  0.948219177636862 -0.009867976960504428 0  0.9536688877131657 -0.009894257783109666 0  0.9597979104438458 -0.009920349306153329 0  0.9654020314719589 -0.009940987600901847 0  0.9712398170272581 -0.009959209624459757 0  0.9772219132298864 -0.009974407121723252 0  0.9827297975109929 -0.009985285083248089 0  0.9888934840407251 -0.009993913310034224 0  0.9943667421923366 -0.009998434045983932 0  1.000414962337846 -0.009999991502249178 0  1.00616395254491 -0.009998125110441144 0  1.011844857354635 -0.009993077234903055 0  1.017933801412069 -0.009984132829796667 0  1.023390946643176 -0.00997301205183276 0  1.029544679732296 -0.009956955598792184 0  1.035089558108845 -0.009939300412459717 0  1.041010936359372 -0.009917116481575694 0  1.04691554237944 -0.00989157814857561 0  1.052471258615448 -0.009864440751261633 0  1.05862104751389 -0.009830897850136421 0  1.064075481579663 -0.009798076706746352 0  1.070173358231585 -0.009757978136698224 0  1.075837941143087 -0.00971752009646258 0  1.081604377355612 -0.009673173917302162 0  1.087640686528322 -0.009623351755525641 0  1.093119387704205 -0.009575135453199036 0  1.099284093826516 -0.009517491101966447 0  1.104783734376909 -0.009463052176492596 0  1.110779897618174 -0.009400480030121557 0  1.116599992234411 -0.00933655469875222 0  1.122217899723542 -0.009271889359757672 0  1.128339818747432 -0.009198135031144493 0  1.133789446190431 -0.00912961705214143 0  1.139923317158062 -0.009049295973540348 0  1.145515844317945 -0.008973134373133167 0  1.151367773813766 -0.008890475161473248 0  1.157336906671575 -0.008803064948780913 0  1.16285160438384 -0.008719557366803981 0  1.16901331600552 -0.008623157866544266 0  1.174481522907442 -0.00853490108265173 0  1.180539122189597 -0.008434191931863186 0  1.186271617394136 -0.008336073959344166 0  1.191966996821913 -0.008235914041393521 0  1.198046448076202 -0.008126091334838595 0  1.203505695906331 -0.008024945109277802 0  1.209661806077474 -0.007908057515838151 0  1.21519584913737 -0.007800455577732041 0  1.221132109188887 -0.00768241304184519 0  1.227019087412133 -0.007562711583992629 0  1.232585135446325 -0.007447155722966398 0  1.238729389023077 -0.007316953404904543 0  1.244180486899644 -0.007199156086382225 0  1.250286093435722 -0.007064709646262071 0  1.255932842016573 -0.006938052500145445 0  1.261716857103797 -0.006806053534187844 0  1.26773845151126 -0.006666245775332091 0  1.273222687278595 -0.006536836953056475 0  1.279386853652711 -0.00638906998029936 0  1.284876650734994 -0.006255450389977176 0  1.290887326898431 -0.00610702037198264 0  1.296685536664392 -0.00596177282270944 0  1.30231949087952 -0.005818744638503708 0  1.308431215520824
[...]
<PointData  Vectors="Traction"> 
<DataArray  type="Float64"  Name="Traction"  NumberOfComponents="3" format="ascii">-2.8242872763157190e-06 1.4443264804783465e-02 0.0000000000000000e+00  -2.8242872763157190e-06 1.4443264804783465e-02 0.0000000000000000e+00  9.1258469762566021e-09 -1.5762010617297524e-08 0.0000000000000000e+00  9.1258469762566021e-09 -1.5762010617297524e-08 0.0000000000000000e+00  -8.1554854323023893e-04 2.6650119113202798e-02 0.0000000000000000e+00  -1.0936093660130987e-03 2.5094108192330968e-02 0.0000000000000000e+00  -1.1831953244666256e-03 1.8199678778923787e-02 0.0000000000000000e+00  -2.5119206195855157e-03 2.7348142735618912e-02 0.0000000000000000e+00  -1.5418418341319406e-03 1.3586307816301343e-02 0.0000000000000000e+00  -3.7881814532144042e-03 2.7537927462432735e-02 0.0000000000000000e+00  -3.1105271824299180e-03 1.9761271882011554e-02 0.0000000000000000e+00  -3.5448232789669957e-03 1.9299628828080801e-02 0.0000000000000000e+00  -3.9475343882131794e-03 1.9210675718270957e-02 0.0000000000000000e+00  -4.8695965818612843e-03 2.1070099239959839e-02 0.0000000000000000e+00  -5.0337397258585943e-03 1.9875274782217688e-02 0.0000000000000000e+00  -5.2914867101290786e-03 1.9247759331796475e-02 0.0000000000000000e+00  -5.8660043488166363e-03 1.9564088097156131e-02 0.0000000000000000e+00  -8.1685527615205523e-03 2.5391081196889240e-02 0.0000000000000000e+00  -5.5236726716318789e-03 1.6116315843435664e-02 0.0000000000000000e+00  -9.2619075322874413e-03 2.5218885623429103e-02 0.0000000000000000e+00  -5.8030821058111743e-03 1.4854890226167703e-02 0.0000000000000000e+00  -1.0271906395633312e-02 2.4760011200726042e-02 0.0000000000000000e+00  -7.5255538903564448e-03 1.7218463186810376e-02 0.0000000000000000e+00  -8.0443079924595561e-03 1.7272896939559128e-02 0.0000000000000000e+00  -1.1537676637910679e-02 2.3509055091143354e-02 0.0000000000000000e+00  -8.7976797659564173e-03 1.6993750181292039e-02 0.0000000000000000e+00  -8.6112901149683081e-03 1.5762923380167378e-02 0.0000000000000000e+00  -1.1231523029115936e-02 1.9558918033296083e-02 0.0000000000000000e+00  -1.1901919159590301e-02 1.9745737277251513e-02 0.0000000000000000e+00  -1.1020072039411504e-02 1.7555048520799858e-02 0.0000000000000000e+00  -1.1221177193566387e-02 1.7076797736926375e-02 0.0000000000000000e+00  -1.5369940318039538e-02 2.2499136561884455e-02 0.0000000000000000e+00  -1.1829547983977928e-02 1.6679589221304796e-02 0.0000000000000000e+00  -1.2555747765796181e-02 1.7015688399484176e-02 0.0000000000000000e+00  -1.3179450416350689e-02 1.7211273775785095e-02 0.0000000000000000e+00  -1.3792697707343250e-02 1.7211855529832266e-02 0.0000000000000000e+00  -1.3261307290649225e-02 1.5997026222219244e-02 0.0000000000000000e+00  -1.9114840456661421e-02 2.2187735601956741e-02 0.0000000000000000e+00  -1.2432243388670727e-02 1.4039807626852419e-02 0.0000000000000000e+00  -1.6023973700852661e-02 1.7360514618765532e-02 0.0000000000000000e+00  -1.6897962717430270e-02 1.7551171675463481e-02 0.0000000000000000e+00  -1.4586774320208714e-02 1.4661200090643835e-02 0.0000000000000000e+00  -1.6914312240822849e-02 1.6312325445969170e-02 0.0000000000000000e+00  -1.6107731978106402e-02 1.5007107360031226e-02 0.0000000000000000e+00  -1.7145805929113533e-02 1.5469645849189636e-02 0.0000000000000000e+00  -1.7527313288085739e-02 1.5143822147375315e-02 0.0000000000000000e+00  -1.8547019268767066e-02 1.5464647440976051e-02 0.0000000000000000e+00  -1.6348729803506573e-02 1.3171182359493994e-02 0.0000000000000000e+00  -2.3702169367877338e-02 1.8533767075772024e-02 0.0000000000000000e+00  -1.5401933084366281e-02 1.1620565787682826e-02 0.0000000000000000e+00  -2.5276139743549801e-02 1.8256921465208700e-02 0.0000000000000000e+00  -1.5261945049497317e-02 1.0662386240474305e-02 0.0000000000000000e+00  -2.5661846673256068e-02 1.7244581186443134e-02 0.0000000000000000e+00  -1.7099862967423694e-02 1.1122430003110077e-02 0.0000000000000000e+00  -2.2688349638964191e-02 1.4152020086275150e-02 0.0000000000000000e+00  -2.0590242204502934e-02 1.2330430100498602e-02 0.0000000000000000e+00  -2.1096664203525465e-02 1.2136002292824492e-02 0.0000000000000000e+00  -2.3384185913595437e-02 1.2893094833846458e-02 0.0000000000000000e+00  -2.2012336276129377e-02 1.1673882467492132e-02 0.0000000000000000e+00  -2.2006656676944663e-02 1.1205702021798155e-02 0.0000000000000000e+00  -2.3431446352842979e-02 1.1435375396470899e-02 0.0000000000000000e+00  -2.0814258565535284e-02 9.8044339300286786e-03 0.0000000000000000e+00  -2.9657104479003490e-02 1.3421810862131957e-02 0.0000000000000000e+00  -1.8120933078446182e-02 7.8782256573044895e-03 0.0000000000000000e+00  -3.0277179383494949e-02 1.2587572194285546e-02 0.0000000000000000e+00  -2.0813742821185737e-02 8.3114915494960015e-03 0.0000000000000000e+00  -2.2923718924209448e-02 8.7047888297535105e-03 0.0000000000000000e+00  -3.1494120116420991e-02 1.1362512645368568e-02 0.0000000000000000e+00  -2.0945997626457782e-02 7.3183919245588700e-03 0.0000000000000000e+00  -2.3381908965941917e-02 7.8381331262299125e-03 0.0000000000000000e+00  -2.4666669360041953e-02 7.8632261766019267e-03 0.0000000000000000e+00  -2.4113523987116692e-02 7.3886197437051902e-03 0.0000000000000000e+00  -2.4421937274700527e-02 7.0927380157238340e-03 0.0000000000000000e+00  -2.5587034877767520e-02 7.0066285398716925e-03 0.0000000000000000e+00  -3.3528922517695924e-02 8.6463007560445317e-03 0.0000000000000000e+00  -2.3948882236335310e-02 5.8854460351810385e-03 0.0000000000000000e+00  -2.1890030260229964e-02 5.0035325995824130e-03 0.0000000000000000e+00  -3.3501094927852741e-02 7.1813939610439938e-03 0.0000000000000000e+00  -2.3992344243402977e-02 4.7319587463162723e-03 0.0000000000000000e+00  -2.8248121173924733e-02 5.1460143729481368e-03 0.0000000000000000e+00  -2.5680844790857828e-02 4.2558302747157896e-03 0.0000000000000000e+00  -2.6456985281954969e-02 4.0276828148224789e-03 0.0000000000000000e+00  -2.5391109910761309e-02 3.4858100764327349e-03 0.0000000000000000e+00  -3.5241760075676830e-02 4.3041498725563078e-03 0.0000000000000000e+00  -2.1921162477126971e-02 2.3923206387963455e-03 0.0000000000000000e+00  -3.5158602778118761e-02 3.3342244522245289e-03 0.0000000000000000e+00  -2.1692826660295338e-02 1.7410800553102524e-03 0.0000000000000000e+00  -2.7868603813555583e-02 1.8550080284263075e-03 0.0000000000000000e+00  -2.8269752360926118e-02 1.4778527653832392e-03 0.0000000000000000e+00  -2.5163585536970456e-02 9.6078458458410303e-04 0.0000000000000000e+00  -3.5006741424292512e-02 8.7603913267832038e-04 0.0000000000000000e+00  -2.6028262950451832e-02 2.8853461574395041e-04 0.0000000000000000e+00  -2.6675770871900175e-02 -9.0155513438478440e-05 0.0000000000000000e+00  -2.7025819192174661e-02 -4.4678871668447288e-04 0.0000000000000000e+00  -2.8250379730949255e-02 -8.5314651499766771e-04 0.0000000000000000e+00  -2.8642941191830976e-02 -1.2603882690814590e-03 0.0000000000000000e+00  -2.3426891300519663e-02 -1.3529273959148682e-03 0.0000000000000000e+00  -3.4886479657245721e-02 -2.5069073553451965e-03 0.0000000000000000e+00  -2.3997200731023828e-02 -2.0414252538939011e-03 0.0000000000000000e+00  -2.8615575113959586e-02 -2.8256402933771294e-03 0.0000000000000000e+00  -2.8865894510095969e-02 -3.2747030417914595e-03 0.0000000000000000e+00  -2.5172253481375768e-02 -3.2238042576292216e-03 0.0000000000000000e+00  -3.5004156626534035e-02 -4.9486478864994212e-03 0.0000000000000000e+00  -2.5024545851037045e-02 -3.8996625837317890e-03 0.0000000000000000e+00  -2.4911879652788640e-02 -4.2752190588511889e-03 0.0000000000000000e+00  -3.5559978384312206e-02 -6.5939020495942770e-03 0.0000000000000000e+00  -2.2023399832866480e-02 -4.4463088276221318e-03 0.0000000000000000e+00  -3.5253417560688935e-02 -7.6238047096753988e-03 0.0000000000000000e+00  -2.3618404697588760e-02 -5.4722027079495182e-03 0.0000000000000000e+00  -2.8553050096819584e-02 -7.0438468690800114e-03 0.0000000000000000e+00  -2.5699797301195596e-02 -6.7589835203976040e-03 0.0000000000000000e+00  -2.6902252406335120e-02 -7.4909648310308163e-03 0.0000000000000000e+00  -2.7500602913264623e-02 -8.0641052475926515e-03 0.0000000000000000e+00  -2.4200029080609309e-02 -7.5528115714752703e-03 0.0000000000000000e+00  -3.3249515351694729e-02 -1.0914056759281905e-02 0.0000000000000000e+00  -2.4746097203959705e-02 -8.5685603066840144e-03 0.0000000000000000e+00  -2.5011229198210562e-02 -9.1182297648993021e-03 0.0000000000000000e+00  -2.5413773672425772e-02 -9.7037411205514075e-03 0.0000000000000000e+00  -2.5604693343328013e-02 -1.0213912999932111e-02 0.0000000000000000e+00  -2.4902547953649542e-02 -1.0418649765781914e-02 0.0000000000000000e+00  -2.3982441414446429e-02 -1.0476988751324013e-02 0.0000000000000000e+00  -2.4856104328161405e-02 -1.1321604863621791e-02 0.0000000000000000e+00  -2.4067897934377535e-02 -1.1550931565016629e-02 0.0000000000000000e+00  -2.3727359935132426e-02 -1.1886802059015463e-02 0.0000000000000000e+00  -2.4590292208910246e-02 -1.2814412879985823e-02 0.0000000000000000e+00  -2.1093162686951914e-02 -1.1487566072889409e-02 0.0000000000000000e+00  -2.9264611407645580e-02 -1.6531802995914620e-02 0.0000000000000000e+00  -2.0328057264311163e-02 -1.1934734829867762e-02 0.0000000000000000e+00  -2.0531003848774779e-02 -1.2526970364173074e-02 0.0000000000000000e+00  -2.8086646485493669e-02 -1.7675886620591018e-02 0.0000000000000000e+00  -1.9884747366349657e-02 -1.3021570064425905e-02 0.0000000000000000e+00  -2.1619580148487770e-02 -1.4725998410861552e-02 0.0000000000000000e+00  -2.1392543820685166e-02 -1.5117617391595995e-02 0.0000000000000000e+00  -2.1302295468847866e-02 -1.5568310681268870e-02 0.0000000000000000e+00  -2.0624723316061959e-02 -1.5766542410892315e-02 0.0000000000000000e+00  -2.0277099399225104e-02 -1.6087362821773699e-02 0.0000000000000000e+00  -2.0321584844726178e-02 -1.6625924833301317e-02 0.0000000000000000e+00  -1.7389530842985279e-02 -1.4842078211861110e-02 0.0000000000000000e+00  -2.3800242124566572e-02 -2.1041376064203192e-02 0.0000000000000000e+00  -1.6989010488706057e-02 -1.5640053178387032e-02 0.0000000000000000e+00  -1.7281471308564795e-02 -1.6565307139664868e-02 0.0000000000000000e+00  -1.7249981860564405e-02 -1.7096597570201520e-02 0.0000000000000000e+00  -1.7203042426444007e-02 -1.7664087983160513e-02 0.0000000000000000e+00  -1.6415182496147870e-02 -1.7617690131410405e-02 0.0000000000000000e+00  -1.6150690104355301e-02 -1.7976501297784542e-02 0.0000000000000000e+00  -1.6244601606378577e-02 -1.8766061461377992e-02 0.0000000000000000e+00  -1.4184498314217931e-02 -1.7132417129732878e-02 0.0000000000000000e+00  -1.9054669427673889e-02 -2.3962838986325504e-02 0.0000000000000000e+00  -1.3085722907153301e-02 -1.7138438750628374e-02 0.0000000000000000e+00  -1.2996148347492216e-02 -1.7859775010469710e-02 0.0000000000000000e+00  -1.7266006287736110e-02 -2.4686411028719657e-02 0.0000000000000000e+00  -1.2199004180973819e-02 -1.8266867041071874e-02 0.0000000000000000e+00  -1.2812630062653962e-02 -2.0198367125392233e-02 0.0000000000000000e+00  -1.2273553667667178e-02 -2.0345496241058667e-02 0.0000000000000000e+00  -1.0810191031036396e-02 -1.8953345577746094e-02 0.0000000000000000e+00  -1.4114422364269442e-02 -2.5991745532830644e-02 0.0000000000000000e+00  -9.8831403566056117e-03 -1.9304523833404745e-02 0.0000000000000000e+00  -9.9169185832913755e-03 -2.0598614891449412e-02 0.0000000000000000e+00  -9.3925033372628600e-03 -2.0738549428091085e-02 0.0000000000000000e+00  -8.7206324437671852e-03 -2.0648800929159269e-02 0.0000000000000000e+00  -1.1053089925031033e-02 -2.7783533316932570e-02 0.0000000000000000e+00  -7.0461470489983635e-03 -1.9166798041978860e-02 0.0000000000000000e+00  -6.9739636744435042e-03 -2.0492644579469130e-02 0.0000000000000000e+00  -7.1611321259824525e-03 -2.2953870069556299e-02 0.0000000000000000e+00  -6.4292677453713434e-03 -2.2685728984356952e-02 0.0000000000000000e+00  -4.9120617214654409e-03 -1.9130076485742404e-02 0.0000000000000000e+00  -6.3649060608548195e-03 -2.7864878955132021e-02 0.0000000000000000e+00  -3.9129985848798017e-03 -1.9212656901937034e-02 0.0000000000000000e+00  -4.0250562114069596e-03 -2.2893209645363490e-02 0.0000000000000000e+00  -3.4573986014250057e-03 -2.3111123878686076e-02 0.0000000000000000e+00  -2.6590036692509052e-03 -2.1709281554629783e-02 0.0000000000000000e+00  -2.0235627345501924e-03 -2.1183335184786600e-02 0.0000000000000000e+00  -1.6826783359457261e-03 -2.4185935198810227e-02 0.0000000000000000e+00  -9.2768427247480370e-04 -2.1909171717190944e-02 0.0000000000000000e+00  -4.2070507881492605e-04 -2.1923953451026237e-02 0.0000000000000000e+00  1.6661450534132289e-04 -2.3383332149755871e-02 0.0000000000000000e+00  6.8962108037600583e-04 -2.1779412533597824e-02 0.0000000000000000e+00  1.2173626648984933e-03 -2.1439908748151305e-02 0.0000000000000000e+00  2.3769124959428754e-03 -2.9384991247833409e-02 0.0000000000000000e+00  2.0672732131687193e-03 -2.0228423481045511e-02 0.0000000000000000e+00  2.7912487116271583e-03 -2.1408182376655996e-02 0.0000000000000000e+00  3.5682707965136698e-03 -2.3068436969852318e-02 0.0000000000000000e+00  3.8650054584586958e-03 -2.1378703243330070e-02 0.0000000000000000e+00  4.3295743415720598e-03 -2.0886359390469410e-02 0.0000000000000000e+00  5.5551754643042781e-03 -2.3730482682050458e-02 0.0000000000000000e+00  5.6102412040295816e-03 -2.1447716262405270e-02 0.0000000000000000e+00  6.1283913902312913e-03 -2.1429685190093715e-02 0.0000000000000000e+00  7.1605950217675882e-03 -2.2770251768939456e-02 0.0000000000000000e+00  7.2041505067883685e-03 -2.1152004462119171e-02 0.0000000000000000e+00  7.6120073568453775e-03 -2.0671715476405408e-02 0.0000000000000000e+00  1.1179204790795717e-02 -2.8232708285764276e-02 0.0000000000000000e+00  8.0919891982433479e-03 -1.9329999485535258e-02 0.0000000000000000e+00  9.1920216984192425e-03 -2.0445502246403260e-02 0.0000000000000000e+00  1.0455764020143093e-02 -2.1923699856971287e-02 0.0000000000000000e+00  1.0256205112537678e-02 -2.0286034151509171e-02 0.0000000000000000e+00  1.0494997855848691e-02 -1.9649892214323471e-02 0.0000000000000000e+00  1.2663821943522554e-02 -2.2452532088065847e-02 0.0000000000000000e+00  1.0899881852528083e-02 -1.8340613461342855e-02 0.0000000000000000e+00  1.5702434282119020e-02 -2.5323258416796283e-02 0.0000000000000000e+00  1.1975775366213101e-02 -1.8445246100839786e-02 0.0000000000000000e+00  1.2986561192821714e-02 -1.9155144565515318e-02 0.0000000000000000e+00  1.4224644831931338e-02 -1.9984266360952310e-02 0.0000000000000000e+00  1.4279255694319591e-02 -1.9148980167601866e-02 0.0000000000000000e+00  1.4891947730094364e-02 -1.9069780260301997e-02 0.0000000000000000e+00  1.5871840281315712e-02 -1.9367024893242581e-02 0.0000000000000000e+00  1.5911582986102627e-02 -1.8668596834796835e-02 0.0000000000000000e+00  1.6274696552363861e-02 -1.8331217479735838e-02 0.0000000000000000e+00  1.8514129595491615e-02 -1.9944852418261980e-02 0.0000000000000000e+00  1.7154799871362116e-02 -1.7734639962512046e-02 0.0000000000000000e+00  1.5732583901699952e-02 -1.5537900843208359e-02 0.0000000000000000e+00  2.4294541188021258e-02 -2.2971703810333366e-02 0.0000000000000000e+00  1.5266660069464635e-02 -1.3932591779270191e-02 0.0000000000000000e+00  2.4477192450695951e-02 -2.1518465921490263e-02 0.0000000000000000e+00  1.5460278793056993e-02 -1.3100036861792551e-02 0.0000000000000000e+00  2.6089885282663802e-02 -2.1255817663996267e-02 0.0000000000000000e+00  1.7094802308932885e-02 -1.3482355169426844e-02 0.0000000000000000e+00  2.0182554447751449e-02 -1.5349145528745854e-02 0.0000000000000000e+00  2.3018590218458083e-02 -1.6772334668912450e-02 0.0000000000000000e+00  2.0894707250135904e-02 -1.4632434909929496e-02 0.0000000000000000e+00  2.1352203618601764e-02 -1.4374628712245910e-02 0.0000000000000000e+00  2.4535457873302743e-02 -1.5840496571485580e-02 0.0000000000000000e+00  2.0304091653797918e-02 -1.2599709639196550e-02 0.0000000000000000e+00  2.9365912510940926e-02 -1.7563332630104796e-02 0.0000000000000000e+00  1.8216401747767032e-02 -1.0480020089543867e-02 0.0000000000000000e+00  3.0601733132799600e-02 -1.6930669941105609e-02 0.0000000000000000e+00  1.8517153297370838e-02 -9.8421474528223463e-03 0.0000000000000000e+00  3.0853054723210097e-02 -1.5737777580179288e-02 0.0000000000000000e+00  2.1062945910242017e-02 -1.0346182748305488e-02 0.0000000000000000e+00  2.2316681203529771e-02 -1.0518204840703597e-02 0.0000000000000000e+00  3.1706036332328956e-02 -1.4326904821246680e-02 0.0000000000000000e+00  1.9711508575663853e-02 -8.5427426167926472e-03 0.0000000000000000e+00  3.2530580759634616e-02 -1.3512060943002788e-02 0.0000000000000000e+00  2.2310888676914435e-02 -8.8779870435653028e-03 0.0000000000000000e+00  2.6800609161960094e-02 -1.0170829283444089e-02 0.0000000000000000e+00  2.5552092334426641e-02 -9.2983061062239577e-03 0.0000000000000000e+00  2.3146575124509995e-02 -8.0627988093677494e-03 0.0000000000000000e+00  2.6467261297246913e-02 -8.7684641498961408e-03 0.0000000000000000e+00  2.7049487206740178e-02 -8.4663805946004443e-03 0.0000000000000000e+00  2.7685224889926967e-02 -8.2431293124184003e-03 0.0000000000000000e+00  2.4415409797129046e-02 -6.9022090717654029e-03 0.0000000000000000e+00  3.3817074857918177e-02 -9.0434707816127707e-03 0.0000000000000000e+00  2.5216405237926589e-02 -6.3704834463428079e-03 0.0000000000000000e+00  2.6388354325532042e-02 -6.2412574576427753e-03 0.0000000000000000e+00  2.6816687818284071e-02 -5.9395020772071991e-03 0.0000000000000000e+00  2.6862786742547565e-02 -5.5356012099474251e-03 0.0000000000000000e+00  2.6940425610147402e-02 -5.1460261427830169e-03 0.0000000000000000e+00  2.9034242678689526e-02 -5.1219891011138018e-03 0.0000000000000000e+00  2.6489285901034054e-02 -4.2457577832412594e-03 0.0000000000000000e+00  3.6451746173633955e-02 -5.2640830169670728e-03 0.0000000000000000e+00  2.2529150604324637e-02 -2.9546539414360843e-03 0.0000000000000000e+00  3.5411239182614282e-02 -4.1313042113627638e-03 0.0000000000000000e+00  2.3727064688061000e-02 -2.4023045423219127e-03 0.0000000000000000e+00  2.7294302127865745e-02 -2.3953209207369271e-03 0.0000000000000000e+00  2.7162622018917025e-02 -2.0094215047439822e-03 0.0000000000000000e+00  2.6401529344980072e-02 -1.5752046301414429e-03 0.0000000000000000e+00  3.5129051777498171e-02 -1.6307439560492743e-03 0.0000000000000000e+00  2.5729266526210198e-02 -8.3544884588167181e-04 0.0000000000000000e+00  2.7575880427640368e-02 -5.2079990684230921e-04 0.0000000000000000e+00  2.7715990700750828e-02 -1.5084602700948411e-04 0.0000000000000000e+00  2.7401242820053580e-02 2.2953402470964092e-04 0.0000000000000000e+00  2.7377881368203238e-02 5.9472326316638410e-04 0.0000000000000000e+00  2.9185250249444891e-02 1.0272260751789100e-03 0.0000000000000000e+00  2.8322113308335863e-02 1.3929449019772651e-03 0.0000000000000000e+00  2.5134380443960588e-02 1.5847894734708279e-03 0.0000000000000000e+00  3.4437961508266154e-02 2.6558915037152909e-03 0.0000000000000000e+00  2.4860106680525351e-02 2.2851024667880260e-03 0.0000000000000000e+00  2.5483991467956019e-02 2.7369872846659334e-03 0.0000000000000000e+00  2.6786717588368907e-02 3.2506308624465378e-03 0.0000000000000000e+00  2.7300528152921059e-02 3.7274844482386802e-03 0.0000000000000000e+00  2.5328365341543344e-02 3.8541406337884959e-03 0.0000000000000000e+00  2.7450523381229028e-02 4.5533116729299513e-03 0.0000000000000000e+00  2.7635053339972002e-02 4.9821026952831075e-03 0.0000000000000000e+00  2.6418539147208615e-02 5.1787443124112166e-03 0.0000000000000000e+00  2.3405665174091150e-02 4.9432446438999883e-03 0.0000000000000000e+00  3.4518836230549292e-02 7.7579629072377304e-03 0.0000000000000000e+00  2.1842889771640606e-02 5.2563870290996944e-03 0.0000000000000000e+00  3.2858658691675154e-02 8.4035051976496487e-03 0.0000000000000000e+00  2.2959539661795515e-02 6.2608177377497017e-03 0.0000000000000000e+00  2.2602912406194598e-02 6.5522683043177515e-03 0.0000000000000000e+00  3.1702549281