<?xml version="1.0"?>
<VTKFile type="UnstructuredGrid"  version="0.1"  >
<UnstructuredGrid>
<Piece  NumberOfPoints="4258" NumberOfCells="6732">
<Points>
<DataArray  type="Float64"  NumberOfComponents="3"  format="ascii">0 0.01 0  10 0.01 0  0 1.015641236154565 0  10 1.015641236154565 0  0.007129524987038337 0.009997491741717768 0  0.01258064459049757 0.00999219056738478 0  0.01872173241756402 0.009982708334120727 0  0.02429919625640796 0.009970876572043954 0  0.03017238705920286 0.009955108531615313 0  0.03612352734296466 0.0099356743715591 0  0.04164979236492252 0.009914517792428084 0  0.04780928449023854 0.009887415768096998 0  0.05327287671237849 0.009860276931383746 0  0.0593436395885565 0.009826715421083503 0  0.06505608699933001 0.009791870631895848 0  0.07077243060783153 0.009753845329312128 0  0.07684085351634186 0.009710036052663748 0  0.08230528612367993 0.009667566921662384 0  0.08846525752759338 0.009616276826848907 0  0.09398926586603956 0.0095672187064786 0  0.09994377871281757 0.009511110804477986 0  0.10581288515308 0.009452550633355501 0  0.1113930001121819 0.009393893683773193 0  0.1175326299024069 0.009326020378011352 0  0.122983161250664 0.009262856809916281 0  0.1290978349347763 0.009188765415777931 0  0.1347300222736412 0.00911751981665075 0  0.1405327472005438 0.009041131768776852 0  0.1465421455697866 0.008958856277281909 0  0.1520341809431761 0.008880870879718691 0  0.1581991754706344 0.00879018143976357 0  0.1636834803794234 0.008706732874359017 0  0.1697073563005918 0.008612096527554045 0  0.1754901396361989 0.008518345936558386 0  0.1811391035120075 0.008424050210098115 0  0.1872444279222087 0.00831915423323064 0  0.1926961446341008 0.008222899998379215 0  0.198841090009393 0.008111516418624823 0  0.2044064770158165 0.008008028244452866 0  0.2102948627703611 0.007895869216798803 0  0.2162299794791283 0.007780085801116003 0  0.2217647046821167 0.007669675498109103 0  0.2279204403470532 0.007544154739747676 0  0.2333791472114919 0.007430485124751003 0  0.2394590817234977 0.0073013084386626 0  0.245152498789355 0.007177928079207972 0  0.2508861115607116 0.007051356111670669 0  0.2569419868439766 0.006915186417023598 0  0.2624099649457279 0.006790084113692359 0  0.2685711825796066 0.006646722567663751 0  0.274083748205357 0.006516341894728842 0  0.2800541704182985 0.00637292855786236 0  0.2859022845836161 0.006230279166502627 0  0.291495955429921 0.006091868246150131 0  0.2976275706217687 0.005937986548763313 0  0.3030757324287757 0.005799406374294222 0  0.3091980118239236 0.005641654227187252 0  0.3148109405089491 0.005495191514879527 0  0.3206341933715942 0.005341435282378838 0  0.3266248575896781 0.005181393525330103 0  0.3321252080346692 0.005032833254881577 0  0.3382880718234609 0.004864596209960478 0  0.3437628463580178 0.004713611578807419 0  0.3498021006600692 0.004545443593512952 0  0.3555594631656461 0.004383601001460968 0  0.3612291099056053 0.004222822711549606 0  0.3673210805066339 0.004048576418709386 0  0.3727746135437823 0.003891330909934085 0  0.3789246700786391 0.003712634483246944 0  0.3844721023230384 0.00355025746928806 0  0.3903845048135511 0.003376011435332509 0  0.3962935688476314 0.003200699755406988 0  0.4018430601204535 0.00303505085978487 0  0.4079921977692303 0.002850427660455144 0  0.4134449905916002 0.002685819499171436 0  0.4195385366679084 0.002500937932218923 0  0.425204482428441 0.002328206591247292 0  0.4309651825948974 0.00215183074136113 0  0.4370014133195289 0.001966263547608745 0  0.4424769325836848 0.00179732019881714 0  0.4486395183564056 0.001606544730410899 0  0.4541373275735043 0.001435838569361521 0  0.4601308451156257 0.001249254088784412 0  0.4659488863550298 0.001067707976620331 0  0.471564807260988 0.0008921302908496037 0  0.4776843759254726 0.0007004920228137959 0  0.4831317484445766 0.0005296836585198918 0  0.4892643513384632 0.0003372062279158936 0  0.4948528283485032 0.000161696161435303 0  0.5007056813361916 -2.216943068070812e-05 0  0.5066699093509902 -0.000209526046556915 0  0.5121845298566023 -0.0003826949545447442 0  0.5183439831944545 -0.0005759742926309219 0  0.5238088617282698 -0.0007472800272428554 0  0.5298681543527348 -0.0009369594486414562 0  0.5355929349139432 -0.001115856450691032 0  0.5412927239341832 -0.001293613669039852 0  0.5473668732672543 -0.001482588207084091 0  0.5528259073001393 -0.001651967505962102 0  0.5589819336317072 -0.001842386787779294 0  0.5645100189486582 -0.002012797049529044 0  0.5704524332663232 -0.002195301346534757 0  0.5763298911552834 -0.002375058665203144 0  0.5819006708717119 -0.002544689651648297 0  0.5880413281562127 -0.002730768313747055 0  0.5934904284812221 -0.002895042191696308 0  0.5995995320960693 -0.003078202338538874 0  0.605236779888003 -0.003246210954182579 0  0.6110299855290301 -0.003417806240976177 0  0.6170432999212266 -0.00359472323302265 0  0.6225307972792151 -0.00375505261922207 0  0.6286944373476531 -0.003933803567825084 0  0.6341794289295242 -0.004091634709336539 0  0.6401977648984302 -0.004263413669385436 0  0.6459846030577213 -0.004427148756161272 0  0.6516277670629291 -0.004585409549508515 0  0.6577342305863492 -0.004755038487876419 0  0.6631843111407589 -0.004904958327357115 0  0.6693271588517591 -0.005072208653571043 0  0.6748942591145469 -0.005222152905474348 0  0.6807781354428797 -0.005378892074409919 0  0.6867158102497221 -0.005535201343768038 0  0.6922478556369909 -0.005679100421160843 0  0.6984036264198542 -0.005837205328254034 0  0.7038624132928571 -0.005975584427524931 0  0.7099402809449575 -0.006127588021236129 0  0.7156361945945205 -0.006268012368771779 0  0.7213667017809595 -0.006407263887957157 0  0.7274241898103784 -0.006552202568912044 0  0.7328913375361901 -0.006680980644346233 0  0.7390522654079078 -0.006823736587757829 0  0.7445663161830813 -0.006949337256267011 0  0.7505345306161221 -0.007082931996795786 0  0.7563856967966242 -0.007211490056377221 0  0.7619775509571868 -0.007332073958440476 0  0.7681106054434813 -0.007461725199742056 0  0.7735594228940573 -0.007574589702563127 0  0.7796809699364847 -0.007698739982391196 0  0.7852974086111042 -0.007810142587226769 0  0.7911178568436495 -0.007923025648348906 0  0.797112403703894 -0.008036515862006795 0  0.8026119630288198 -0.008138129173272899 0  0.8087760180262171 -0.008249131188213875 0  0.814253500572072 -0.008345174877796967 0  0.8202905515677629 -0.008448166667805387 0  0.8260544286221699 -0.008543663134562481 0  0.831720415905675 -0.008634807324656511 0  0.8378167080097026 -0.008729817306667463 0  0.8432709709919499 -0.008812108559864256 0  0.8494209576248264 -0.008901791974276371 0  0.8549745826348545 -0.008979924427376591 0  0.8608814329347291 -0.009060026011188804 0  0.8667998142885592 -0.009137155111096256 0  0.8723460990452367 -0.009206568509458774 0  0.8784989383774584 -0.009280301817794542 0  0.8839552890388401 -0.009342788637451834 0  0.8900456692707091 -0.009409293585850673 0  0.8957233874467343 -0.009468190513990782 0  0.9014754209053449 -0.009524786393944277 0  0.9075213579987256 -0.009580921173179099 0  0.9129954731058688 -0.009628765913494807 0  0.9191593188847452 -0.009679229788646495 0  0.9246655330424429 -0.009721240864333262 0  0.9306503084472221 -0.009763603884533442 0  0.9364847200361547 -0.009801580348484516 0  0.9420914259676206 -0.009834972127394636 0  0.948219177636862 -0.009867976960504428 0  0.9536688877131657 -0.009894257783109666 0  0.9597979104438458 -0.009920349306153329 0  0.9654020314719589 -0.009940987600901847 0  0.9712398170272581 -0.009959209624459757 0  0.9772219132298864 -0.009974407121723252 0  0.9827297975109929 -0.009985285083248089 0  0.9888934840407251 -0.009993913310034224 0  0.9943667421923366 -0.009998434045983932 0  1.000414962337846 -0.009999991502249178 0  1.00616395254491 -0.009998125110441144 0  1.011844857354635 -0.009993077234903055 0  1.017933801412069 -0.009984132829796667 0  1.023390946643176 -0.00997301205183276 0  1.029544679732296 -0.009956955598792184 0  1.035089558108845 -0.009939300412459717 0  1.041010936359372 -0.009917116481575694 0  1.04691554237944 -0.00989157814857561 0  1.052471258615448 -0.009864440751261633 0  1.05862104751389 -0.009830897850136421 0  1.064075481579663 -0.009798076706746352 0  1.070173358231585 -0.009757978136698224 0  1.075837941143087 -0.00971752009646258 0  1.081604377355612 -0.009673173917302162 0  1.087640686528322 -0.009623351755525641 0  1.093119387704205 -0.009575135453199036 0  1.099284093826516 -0.009517491101966447 0  1.104783734376909 -0.009463052176492596 0  1.110779897618174 -0.009400480030121557 0  1.116599992234411 -0.00933655469875222 0  1.122217899723542 -0.009271889359757672 0  1.128339818747432 -0.009198135031144493 0  1.133789446190431 -0.00912961705214143 0  1.139923317158062 -0.009049295973540348 0  1.145515844317945 -0.008973134373133167 0  1.151367773813766 -0.008890475161473248 0  1.157336906671575 -0.008803064948780913 0  1.16285160438384 -0.008719557366803981 0  1.16901331600552 -0.008623157866544266 0  1.174481522907442 -0.00853490108265173 0  1.180539122189597 -0.008434191931863186 0  1.186271617394136 -0.008336073959344166 0  1.191966996821913 -0.008235914041393521 0  1.198046448076202 -0.008126091334838595 0  1.203505695906331 -0.008024945109277802 0  1.209661806077474 -0.007908057515838151 0  1.21519584913737 -0.007800455577732041 0  1.221132109188887 -0.00768241304184519 0  1.227019087412133 -0.007562711583992629 0  1.232585135446325 -0.007447155722966398 0  1.238729389023077 -0.007316953404904543 0  1.244180486899644 -0.007199156086382225 0  1.250286093435722 -0.007064709646262071 0  1.255932842016573 -0.006938052500145445 0  1.261716857103797 -0.006806053534187844 0  1.26773845151126 -0.006666245775332091 0  1.273222687278595 -0.006536836953056475 0  1.279386853652711 -0.00638906998029936 0  1.284876650734994 -0.006255450389977176 0  1.290887326898431 -0.00610702037198264 0  1.296685536664392 -0.00596177282270944 0  1.30231949087952 -0.005818744638503708 0  1.308431215520824
[...]
<PointData  Vectors="Traction"> 
<DataArray  type="Float64"  Name="Traction"  NumberOfComponents="3" format="ascii">-1.9678790126236303e-05 1.4067147967786459e-02 0.0000000000000000e+00  -1.9678790126236303e-05 1.4067147967786459e-02 0.0000000000000000e+00  -1.8989408225773099e-09 -7.9181505721526406e-09 0.0000000000000000e+00  -1.8989408225773099e-09 -7.9181505721526406e-09 0.0000000000000000e+00  -8.4150352205304951e-04 2.5947484229243211e-02 0.0000000000000000e+00  -1.1122818945233498e-03 2.4427991509100251e-02 0.0000000000000000e+00  -1.1924151362179311e-03 1.7716743551474401e-02 0.0000000000000000e+00  -2.5165815707021122e-03 2.6609372505657897e-02 0.0000000000000000e+00  -1.5418008585575472e-03 1.3230986678950611e-02 0.0000000000000000e+00  -3.7795850648725481e-03 2.6802463062177598e-02 0.0000000000000000e+00  -3.0991253451731478e-03 1.9235587685874155e-02 0.0000000000000000e+00  -3.5272968254421184e-03 1.8780859995745084e-02 0.0000000000000000e+00  -3.9247702657236559e-03 1.8689199885843100e-02 0.0000000000000000e+00  -4.8347537827995073e-03 2.0485757872154620e-02 0.0000000000000000e+00  -4.9954430804132824e-03 1.9328626725390704e-02 0.0000000000000000e+00  -5.2527788682780706e-03 1.8718352287545884e-02 0.0000000000000000e+00  -5.8182499777615308e-03 1.9015198269309516e-02 0.0000000000000000e+00  -8.0927847025966185e-03 2.4668965421375630e-02 0.0000000000000000e+00  -5.4707770545202967e-03 1.5666195226551976e-02 0.0000000000000000e+00  -9.1647818160216898e-03 2.4500892498277544e-02 0.0000000000000000e+00  -5.7432487248636850e-03 1.4441982697879449e-02 0.0000000000000000e+00  -1.0158179196206653e-02 2.4085588966302602e-02 0.0000000000000000e+00  -7.3905793536884860e-03 1.6658101281277451e-02 0.0000000000000000e+00  -7.8924014919767218e-03 1.6725016877239086e-02 0.0000000000000000e+00  -1.1758107841860684e-02 2.3662340461163993e-02 0.0000000000000000e+00  -7.7575042798515865e-03 1.4838758398908010e-02 0.0000000000000000e+00  -1.2845625634717943e-02 2.3307170668126331e-02 0.0000000000000000e+00  -9.4237925327427668e-03 1.6351243750858037e-02 0.0000000000000000e+00  -1.0526832684553055e-02 1.7408187399812345e-02 0.0000000000000000e+00  -1.1167452791858004e-02 1.7660359086725985e-02 0.0000000000000000e+00  -1.1702708829585771e-02 1.7644110717355728e-02 0.0000000000000000e+00  -1.1853087317121461e-02 1.7087403657582934e-02 0.0000000000000000e+00  -1.2308638420576985e-02 1.6958458099171358e-02 0.0000000000000000e+00  -1.2978741459558853e-02 1.7167670138891891e-02 0.0000000000000000e+00  -1.2498684312682201e-02 1.5864911622979930e-02 0.0000000000000000e+00  -1.7841545206598804e-02 2.1677194848646927e-02 0.0000000000000000e+00  -1.2011545815714886e-02 1.4220285583407152e-02 0.0000000000000000e+00  -1.4456032478847180e-02 1.6477042706180417e-02 0.0000000000000000e+00  -1.5842767166724125e-02 1.7346980415509805e-02 0.0000000000000000e+00  -1.6517676513452196e-02 1.7450605612295281e-02 0.0000000000000000e+00  -1.5210670365310330e-02 1.5565151840244242e-02 0.0000000000000000e+00  -1.5285320444428816e-02 1.5136843774883236e-02 0.0000000000000000e+00  -1.6167023650575100e-02 1.5309168499243323e-02 0.0000000000000000e+00  -1.6024480796573974e-02 1.4772826208052581e-02 0.0000000000000000e+00  -1.6833391331165959e-02 1.4988684075906969e-02 0.0000000000000000e+00  -1.7308521556416843e-02 1.4739505697530499e-02 0.0000000000000000e+00  -1.7838754791216719e-02 1.4658880334664112e-02 0.0000000000000000e+00  -1.5962789510285732e-02 1.2686415267041073e-02 0.0000000000000000e+00  -2.3212197982574803e-02 1.7946411784998045e-02 0.0000000000000000e+00  -1.5438226339955501e-02 1.1491332271329365e-02 0.0000000000000000e+00  -2.4928730919600760e-02 1.7895504533384246e-02 0.0000000000000000e+00  -1.6524218493859117e-02 1.1565830394111480e-02 0.0000000000000000e+00  -1.7130605733302148e-02 1.1614991255812982e-02 0.0000000000000000e+00  -1.7827546422321851e-02 1.1561583948198778e-02 0.0000000000000000e+00  -2.6326276246229255e-02 1.6339683888288145e-02 0.0000000000000000e+00  -1.9859585750701247e-02 1.1943794088727217e-02 0.0000000000000000e+00  -2.2671998184467915e-02 1.3042428620590737e-02 0.0000000000000000e+00  -2.1835062782828710e-02 1.2162989290212837e-02 0.0000000000000000e+00  -2.0869387321929497e-02 1.1204390733190990e-02 0.0000000000000000e+00  -2.1985245164406673e-02 1.1314260096068295e-02 0.0000000000000000e+00  -2.1710611585409569e-02 1.0776744598916321e-02 0.0000000000000000e+00  -1.9988271399499265e-02 9.5141952793404497e-03 0.0000000000000000e+00  -2.9513577712985541e-02 1.3407721872556821e-02 0.0000000000000000e+00  -2.0182964700656742e-02 8.8196582829595492e-03 0.0000000000000000e+00  -3.0409890934608410e-02 1.2654033407858072e-02 0.0000000000000000e+00  -2.0064682377243768e-02 8.0782977260247784e-03 0.0000000000000000e+00  -2.0255593341981046e-02 7.7971025844237396e-03 0.0000000000000000e+00  -3.1288995257796409e-02 1.1418556371340106e-02 0.0000000000000000e+00  -1.9899966962352699e-02 6.9481242593821173e-03 0.0000000000000000e+00  -3.1107491173940235e-02 1.0366029025143088e-02 0.0000000000000000e+00  -2.1500173692352041e-02 6.8108092650894063e-03 0.0000000000000000e+00  -2.6603685412848209e-02 7.9772549858374096e-03 0.0000000000000000e+00  -2.4872678862601583e-02 7.0460851571849227e-03 0.0000000000000000e+00  -2.2419318609304403e-02 5.9945744410801038e-03 0.0000000000000000e+00  -3.3469935225911927e-02 8.4075376850460855e-03 0.0000000000000000e+00  -2.1293579644942825e-02 5.0545587700161236e-03 0.0000000000000000e+00  -3.2836634826792839e-02 7.3395857836801954e-03 0.0000000000000000e+00  -2.3500952664870532e-02 4.9270316132085327e-03 0.0000000000000000e+00  -2.3610515773610310e-02 4.6065073586920684e-03 0.0000000000000000e+00  -3.4033013292032406e-02 6.1354032325112301e-03 0.0000000000000000e+00  -2.1080277109844003e-02 3.4892308903805521e-03 0.0000000000000000e+00  -3.4453169994505546e-02 5.2168667337528273e-03 0.0000000000000000e+00  -2.2160846647609939e-02 3.0169270527809549e-03 0.0000000000000000e+00  -3.5616071070328659e-02 4.3630220804616402e-03 0.0000000000000000e+00  -2.2202773813966386e-02 2.4309230096978664e-03 0.0000000000000000e+00  -2.4615634416277104e-02 2.3410074787219523e-03 0.0000000000000000e+00  -2.5583599501177633e-02 2.0548626701953994e-03 0.0000000000000000e+00  -3.4646646441725590e-02 2.3082985741727574e-03 0.0000000000000000e+00  -2.5893820881289168e-02 1.3837917484291566e-03 0.0000000000000000e+00  -2.3754454081069801e-02 9.4499421434646625e-04 0.0000000000000000e+00  -3.4679995429850612e-02 9.5167563670806629e-04 0.0000000000000000e+00  -2.3946621195072616e-02 3.3319666952508843e-04 0.0000000000000000e+00  -2.9517259497410932e-02 -5.0732584260313132e-05 0.0000000000000000e+00  -2.6988976854606637e-02 -4.4426234186119919e-04 0.0000000000000000e+00  -2.7605878050350769e-02 -8.5166241508840353e-04 0.0000000000000000e+00  -3.0279627595801165e-02 -1.3431101790155101e-03 0.0000000000000000e+00  -2.5912043348629874e-02 -1.4976056562651294e-03 0.0000000000000000e+00  -3.4836030261845299e-02 -2.4673828779709491e-03 0.0000000000000000e+00  -2.5261047956909696e-02 -2.1116279852185092e-03 0.0000000000000000e+00  -2.7146773390327662e-02 -2.6688016542755696e-03 0.0000000000000000e+00  -2.6335818404942753e-02 -2.9740474666975218e-03 0.0000000000000000e+00  -2.4234769772816630e-02 -3.0990586802587721e-03 0.0000000000000000e+00  -3.5893202173140050e-02 -5.0222185248482484e-03 0.0000000000000000e+00  -2.6606634473144344e-02 -4.1056162466874902e-03 0.0000000000000000e+00  -2.4464684530690152e-02 -4.1711361085000672e-03 0.0000000000000000e+00  -3.5278922338090907e-02 -6.5023270228389326e-03 0.0000000000000000e+00  -2.1853652473566524e-02 -4.3739995363925119e-03 0.0000000000000000e+00  -3.4764089414571174e-02 -7.4569867530132504e-03 0.0000000000000000e+00  -2.3332504513994368e-02 -5.3493750803425182e-03 0.0000000000000000e+00  -2.8192376152762468e-02 -6.8826156071742821e-03 0.0000000000000000e+00  -2.5406628397696463e-02 -6.6184304961752994e-03 0.0000000000000000e+00  -2.6634852785141480e-02 -7.3648401410714680e-03 0.0000000000000000e+00  -2.7218693970625218e-02 -7.9336424737717539e-03 0.0000000000000000e+00  -2.3950897437918273e-02 -7.4350932285672236e-03 0.0000000000000000e+00  -3.2821836898189058e-02 -1.0716281677690375e-02 0.0000000000000000e+00  -2.4488751419660060e-02 -8.4313211680925176e-03 0.0000000000000000e+00  -2.4656013889552013e-02 -8.9363686657628200e-03 0.0000000000000000e+00  -2.4919478130326533e-02 -9.4602852145605747e-03 0.0000000000000000e+00  -2.5307351008380125e-02 -1.0025653285529360e-02 0.0000000000000000e+00  -2.4538532368204004e-02 -1.0182279717039739e-02 0.0000000000000000e+00  -2.3643727873466365e-02 -1.0225972873824816e-02 0.0000000000000000e+00  -2.4482711530457783e-02 -1.1016379963861183e-02 0.0000000000000000e+00  -2.3724785352842663e-02 -1.1223003867051483e-02 0.0000000000000000e+00  -2.3399232731675591e-02 -1.1530462479412810e-02 0.0000000000000000e+00  -2.4254533247536243e-02 -1.2411473391210107e-02 0.0000000000000000e+00  -2.0824284035003367e-02 -1.1123997461956199e-02 0.0000000000000000e+00  -2.8902549301018456e-02 -1.5993107834169136e-02 0.0000000000000000e+00  -2.0093312083911855e-02 -1.1552938040615787e-02 0.0000000000000000e+00  -2.0296776244406557e-02 -1.2127321389752336e-02 0.0000000000000000e+00  -2.7782151119507863e-02 -1.7126472626837978e-02 0.0000000000000000e+00  -1.9674608019562546e-02 -1.2625160279468533e-02 0.0000000000000000e+00  -2.1394715546061854e-02 -1.4289944595008841e-02 0.0000000000000000e+00  -2.1174114794778896e-02 -1.4685744643530618e-02 0.0000000000000000e+00  -2.1088139331730774e-02 -1.5137192557444158e-02 0.0000000000000000e+00  -2.0415013107715183e-02 -1.5343046716423853e-02 0.0000000000000000e+00  -2.0068868664209941e-02 -1.5666401879726746e-02 0.0000000000000000e+00  -2.0111539568257248e-02 -1.6197993915089248e-02 0.0000000000000000e+00  -1.7206619701929528e-02 -1.4465028082653535e-02 0.0000000000000000e+00  -2.3549811902590107e-02 -2.0515814352198920e-02 0.0000000000000000e+00  -1.6807213560285396e-02 -1.5250384261133893e-02 0.0000000000000000e+00  -1.7096381018005639e-02 -1.6155099310786136e-02 0.0000000000000000e+00  -1.7065001320313165e-02 -1.6673514949769475e-02 0.0000000000000000e+00  -1.7018621579621904e-02 -1.7228438612018948e-02 0.0000000000000000e+00  -1.6238052013885160e-02 -1.7184982814649086e-02 0.0000000000000000e+00  -1.5976002703330171e-02 -1.7535625080803550e-02 0.0000000000000000e+00  -1.6068639558039166e-02 -1.8306541230863387e-02 0.0000000000000000e+00  -1.4030945541617323e-02 -1.6714568606951370e-02 0.0000000000000000e+00  -1.8847818301316970e-02 -2.3379668325731604e-02 0.0000000000000000e+00  -1.2943988852132790e-02 -1.6722018000699022e-02 0.0000000000000000e+00  -1.2855971818447170e-02 -1.7427551878121429e-02 0.0000000000000000e+00  -1.7079879143609127e-02 -2.4089428996304361e-02 0.0000000000000000e+00  -1.2067766808685912e-02 -1.7827320344940712e-02 0.0000000000000000e+00  -1.2674440493916675e-02 -1.9712869643180784e-02 0.0000000000000000e+00  -1.2141285736897036e-02 -1.9856926130017605e-02 0.0000000000000000e+00  -1.0693839409842041e-02 -1.8497846845457931e-02 0.0000000000000000e+00  -1.3963832128979203e-02 -2.5366431177589386e-02 0.0000000000000000e+00  -9.7787835078167532e-03 -1.8841613364894580e-02 0.0000000000000000e+00  -9.8131125808429108e-03 -2.0105885574801478e-02 0.0000000000000000e+00  -9.2949873287731799e-03 -2.0244250847817093e-02 0.0000000000000000e+00  -8.6310058257546233e-03 -2.0158251159558355e-02 0.0000000000000000e+00  -1.0940773657825122e-02 -2.7123184128349468e-02 0.0000000000000000e+00  -6.9748206735797871e-03 -1.8713458495526879e-02 0.0000000000000000e+00  -6.9040502624888901e-03 -2.0008847573227139e-02 0.0000000000000000e+00  -7.0904996686707482e-03 -2.2413256946808895e-02 0.0000000000000000e+00  -6.3669772324346377e-03 -2.2153109829634855e-02 0.0000000000000000e+00  -4.8650081367027113e-03 -1.8682394582646478e-02 0.0000000000000000e+00  -6.3048966723246178e-03 -2.7213324419418723e-02 0.0000000000000000e+00  -3.8767521034226943e-03 -1.8764793173725581e-02 0.0000000000000000e+00  -3.9881182998258808e-03 -2.2360308222041578e-02 0.0000000000000000e+00  -3.4260916852850562e-03 -2.2573790246258267e-02 0.0000000000000000e+00  -2.6352856392280609e-03 -2.1205076286285100e-02 0.0000000000000000e+00  -2.0062695672189699e-03 -2.0691365793838880e-02 0.0000000000000000e+00  -1.6691520464224105e-03 -2.3623643911366263e-02 0.0000000000000000e+00  -9.2118405844138381e-04 -2.1399276864283497e-02 0.0000000000000000e+00  -4.1967685398922429e-04 -2.1413074066169654e-02 0.0000000000000000e+00  1.6170119303741048e-04 -2.2837563222497401e-02 0.0000000000000000e+00  6.7962461623965532e-04 -2.1269761130017502e-02 0.0000000000000000e+00  1.2015012227279611e-03 -2.0937380578439222e-02 0.0000000000000000e+00  2.3472697093294545e-03 -2.8693316576090592e-02 0.0000000000000000e+00  2.0416520351148695e-03 -1.9752697823108300e-02 0.0000000000000000e+00  2.7571930421331852e-03 -2.0904392951909798e-02 0.0000000000000000e+00  3.5249042106236177e-03 -2.2526018673848954e-02 0.0000000000000000e+00  3.8185306117037698e-03 -2.0877118700946457e-02 0.0000000000000000e+00  4.2784897541606704e-03 -2.0396569771361801e-02 0.0000000000000000e+00  5.4901264606626058e-03 -2.3173300842274012e-02 0.0000000000000000e+00  5.5447744427514619e-03 -2.0943856853902570e-02 0.0000000000000000e+00  6.0569959299766234e-03 -2.0925738026518894e-02 0.0000000000000000e+00  7.0772693514387069e-03 -2.2234128321872361e-02 0.0000000000000000e+00  7.1201063400303157e-03 -2.0653325778728009e-02 0.0000000000000000e+00  7.5232898715060824e-03 -2.0184238689799700e-02 0.0000000000000000e+00  1.1048898163185822e-02 -2.7564128624077554e-02 0.0000000000000000e+00  7.9972160708135630e-03 -1.8872569835170747e-02 0.0000000000000000e+00  9.0844843106379723e-03 -1.9961142510958776e-02 0.0000000000000000e+00  1.0332970711220730e-02 -2.1403976360221229e-02 0.0000000000000000e+00  1.0135509792534941e-02 -1.9805250632494581e-02 0.0000000000000000e+00  1.0371630960493346e-02 -1.9184318421858877e-02 0.0000000000000000e+00  1.2515087618605919e-02 -2.1920058623610246e-02 0.0000000000000000e+00  1.0771784379551935e-02 -1.7905704159500224e-02 0.0000000000000000e+00  1.5517556682046414e-02 -2.4722698197115287e-02 0.0000000000000000e+00  1.1834770740895870e-02 -1.8008942076868362e-02 0.0000000000000000e+00  1.2833699947265700e-02 -1.8702684654352587e-02 0.0000000000000000e+00  1.4057961385907283e-02 -1.9513023740469905e-02 0.0000000000000000e+00  1.4112240211995548e-02 -1.8697206369218199e-02 0.0000000000000000e+00  1.4718501354190025e-02 -1.8619020494653426e-02 0.0000000000000000e+00  1.5687717464934189e-02 -1.8908619789361581e-02 0.0000000000000000e+00  1.5727054758034115e-02 -1.8226454370049480e-02 0.0000000000000000e+00  1.6086898880213488e-02 -1.7896962871749116e-02 0.0000000000000000e+00  1.8301235288027632e-02 -1.9471090827165312e-02 0.0000000000000000e+00  1.6958185242827793e-02 -1.7312770562788782e-02 0.0000000000000000e+00  1.5553470351866449e-02 -1.5166512609896821e-02 0.0000000000000000e+00  2.4018555835983800e-02 -2.2419044320965996e-02 0.0000000000000000e+00  1.5093406933317507e-02 -1.3595988534866136e-02 0.0000000000000000e+00  2.4198600733975961e-02 -2.0995373914624586e-02 0.0000000000000000e+00  1.5284997126478312e-02 -1.2781628877447864e-02 0.0000000000000000e+00  2.5794001162990129e-02 -2.0733471400689849e-02 0.0000000000000000e+00  1.6900386385704218e-02 -1.3150324686042951e-02 0.0000000000000000e+00  1.9952693554482964e-02 -1.4967996957552594e-02 0.0000000000000000e+00  2.2756547158928806e-02 -1.6353543533787981e-02 0.0000000000000000e+00  2.0656254666741269e-02 -1.4265269065590416e-02 0.0000000000000000e+00  2.1108605389306933e-02 -1.4011524323519443e-02 0.0000000000000000e+00  2.4255270552193051e-02 -1.5437087734635433e-02 0.0000000000000000e+00  2.0071952578979597e-02 -1.2276517379246340e-02 0.0000000000000000e+00  2.9029996293025991e-02 -1.7109498567412149e-02 0.0000000000000000e+00  1.8008720639934812e-02 -1.0206900544888247e-02 0.0000000000000000e+00  3.0251257294054260e-02 -1.6484095006179998e-02 0.0000000000000000e+00  1.8302771199495603e-02 -9.5810915778594321e-03 0.0000000000000000e+00  3.0500728820985121e-02 -1.5313917557492382e-02 0.0000000000000000e+00  2.0810498209507006e-02 -1.0058200532506356e-02 0.0000000000000000e+00  2.2070803761638932e-02 -1.0233022966833765e-02 0.0000000000000000e+00  3.1341645882691137e-02 -1.3935462577594912e-02 0.0000000000000000e+00  1.9483382581590176e-02 -8.3001983490068217e-03 0.0000000000000000e+00  3.2153890684431509e-02 -1.3132743301117173e-02 0.0000000000000000e+00  2.2036891456828144e-02 -8.6131561922332348e-03 0.0000000000000000e+00  2.6513981247873967e-02 -9.8821019334039781e-03 0.0000000000000000e+00  2.5223111195665109e-02 -9.0176460905113387e-03 0.0000000000000000e+00  2.2879088500094649e-02 -7.8214826410212251e-03 0.0000000000000000e+00  2.6169866698349465e-02 -8.5154899912085226e-03 0.0000000000000000e+00  2.6723651897818612e-02 -8.2090715772519703e-03 0.0000000000000000e+00  2.7352918945953222e-02 -7.9927303497549802e-03 0.0000000000000000e+00  2.4121071088039230e-02 -6.6933570004354195e-03 0.0000000000000000e+00  3.3418287710068509e-02 -8.7680034309454181e-03 0.0000000000000000e+00  2.4921221841123341e-02 -6.1648200404706265e-03 0.0000000000000000e+00  2.6077388614606276e-02 -6.0314859154872776e-03 0.0000000000000000e+00  2.6501673613809111e-02 -5.7230626509058406e-03 0.0000000000000000e+00  2.6537825791022259e-02 -5.3208299044808366e-03 0.0000000000000000e+00  2.6610315503173138e-02 -4.9391848187103071e-03 0.0000000000000000e+00  2.8675368264273166e-02 -4.9030658232588793e-03 0.0000000000000000e+00  2.6157793105975744e-02 -4.0484512732813409e-03 0.0000000000000000e+00  3.5991395318224012e-02 -4.9999011495284627e-03 0.0000000000000000e+00  2.2230707316521228e-02 -2.7962013130213865e-03 0.0000000000000000e+00  3.4951609741661178e-02 -3.8906679300683453e-03 0.0000000000000000e+00  2.3387856124484685e-02 -2.2303373728290487e-03 0.0000000000000000e+00  2.6926509045151040e-02 -2.2094426545474638e-03 0.0000000000000000e+00  2.6777685230837574e-02 -1.8291115082810058e-03 0.0000000000000000e+00  2.6012944021552409e-02 -1.4110487353060171e-03 0.0000000000000000e+00  3.4571418280213602e-02 -1.4200894522285101e-03 0.0000000000000000e+00  2.5365605753612488e-02 -6.9903848273335451e-04 0.0000000000000000e+00  2.7039563429226095e-02 -3.8468009107067963e-04 0.0000000000000000e+00  2.6655566921282393e-02 -3.7396923534550388e-05 0.0000000000000000e+00  2.7158488214289067e-02 2.8556539305466737e-04 0.0000000000000000e+00  2.6836143585508263e-02 5.9571659610922788e-04 0.0000000000000000e+00  2.6780545864207320e-02 8.7436192500102222e-04 0.0000000000000000e+00  2.7809566387531636e-02 1.2303616914518406e-03 0.0000000000000000e+00  2.4855567957877085e-02 1.4079436990616133e-03 0.0000000000000000e+00  3.4047312520607859e-02 2.2896570393175796e-03 0.0000000000000000e+00  2.5101658499131683e-02 2.0199101957707748e-03 0.0000000000000000e+00  2.5944794876701163e-02 2.4178948572444519e-03 0.0000000000000000e+00  2.5853411253615288e-02 2.7025723012482484e-03 0.0000000000000000e+00  2.6506997475117741e-02 3.1259998129923874e-03 0.0000000000000000e+00  2.6099137401293486e-02 3.4612929103889321e-03 0.0000000000000000e+00  2.3647265094393171e-02 3.4885451253519970e-03 0.0000000000000000e+00  3.4909175636616295e-02 5.6739423911090223e-03 0.0000000000000000e+00  2.4226372417118246e-02 4.3498102031027074e-03 0.0000000000000000e+00  2.3424899614762681e-02 4.6479852601904797e-03 0.0000000000000000e+00  3.3963522500660648e-02 7.2563463745014007e-03 0.0000000000000000e+00  2.2964000075282841e-02 5.3401037605221588e-03 0.0000000000000000e+00  3.3721282329265009e-02 8.4018994948008036e-03 0.0000000000000000e+00  2.1758283612658507e-02 5.8347904589991012e-03 0.0000000000000000e+00  2.5258300744671176e-02 7.2418378717021724e-03 0.0000000000000000e+00  2.25071944