<?xml version="1.0"?>
<VTKFile type="UnstructuredGrid"  version="0.1"  >
<UnstructuredGrid>
<Piece  NumberOfPoints="4278" NumberOfCells="6772">
<Points>
<DataArray  type="Float64"  NumberOfComponents="3"  format="ascii">0 0.01 0  10 0.01 0  0 1.019573477143549 0  10 1.019573477143549 0  0.007129524987038337 0.009997491741717768 0  0.01258064459049757 0.00999219056738478 0  0.01872173241756402 0.009982708334120727 0  0.02429919625640796 0.009970876572043954 0  0.03017238705920286 0.009955108531615313 0  0.03612352734296466 0.0099356743715591 0  0.04164979236492252 0.009914517792428084 0  0.04780928449023854 0.009887415768096998 0  0.05327287671237849 0.009860276931383746 0  0.0593436395885565 0.009826715421083503 0  0.06505608699933001 0.009791870631895848 0  0.07077243060783153 0.009753845329312128 0  0.07684085351634186 0.009710036052663748 0  0.08230528612367993 0.009667566921662384 0  0.08846525752759338 0.009616276826848907 0  0.09398926586603956 0.0095672187064786 0  0.09994377871281757 0.009511110804477986 0  0.10581288515308 0.009452550633355501 0  0.1113930001121819 0.009393893683773193 0  0.1175326299024069 0.009326020378011352 0  0.122983161250664 0.009262856809916281 0  0.1290978349347763 0.009188765415777931 0  0.1347300222736412 0.00911751981665075 0  0.1405327472005438 0.009041131768776852 0  0.1465421455697866 0.008958856277281909 0  0.1520341809431761 0.008880870879718691 0  0.1581991754706344 0.00879018143976357 0  0.1636834803794234 0.008706732874359017 0  0.1697073563005918 0.008612096527554045 0  0.1754901396361989 0.008518345936558386 0  0.1811391035120075 0.008424050210098115 0  0.1872444279222087 0.00831915423323064 0  0.1926961446341008 0.008222899998379215 0  0.198841090009393 0.008111516418624823 0  0.2044064770158165 0.008008028244452866 0  0.2102948627703611 0.007895869216798803 0  0.2162299794791283 0.007780085801116003 0  0.2217647046821167 0.007669675498109103 0  0.2279204403470532 0.007544154739747676 0  0.2333791472114919 0.007430485124751003 0  0.2394590817234977 0.0073013084386626 0  0.245152498789355 0.007177928079207972 0  0.2508861115607116 0.007051356111670669 0  0.2569419868439766 0.006915186417023598 0  0.2624099649457279 0.006790084113692359 0  0.2685711825796066 0.006646722567663751 0  0.274083748205357 0.006516341894728842 0  0.2800541704182985 0.00637292855786236 0  0.2859022845836161 0.006230279166502627 0  0.291495955429921 0.006091868246150131 0  0.2976275706217687 0.005937986548763313 0  0.3030757324287757 0.005799406374294222 0  0.3091980118239236 0.005641654227187252 0  0.3148109405089491 0.005495191514879527 0  0.3206341933715942 0.005341435282378838 0  0.3266248575896781 0.005181393525330103 0  0.3321252080346692 0.005032833254881577 0  0.3382880718234609 0.004864596209960478 0  0.3437628463580178 0.004713611578807419 0  0.3498021006600692 0.004545443593512952 0  0.3555594631656461 0.004383601001460968 0  0.3612291099056053 0.004222822711549606 0  0.3673210805066339 0.004048576418709386 0  0.3727746135437823 0.003891330909934085 0  0.3789246700786391 0.003712634483246944 0  0.3844721023230384 0.00355025746928806 0  0.3903845048135511 0.003376011435332509 0  0.3962935688476314 0.003200699755406988 0  0.4018430601204535 0.00303505085978487 0  0.4079921977692303 0.002850427660455144 0  0.4134449905916002 0.002685819499171436 0  0.4195385366679084 0.002500937932218923 0  0.425204482428441 0.002328206591247292 0  0.4309651825948974 0.00215183074136113 0  0.4370014133195289 0.001966263547608745 0  0.4424769325836848 0.00179732019881714 0  0.4486395183564056 0.001606544730410899 0  0.4541373275735043 0.001435838569361521 0  0.4601308451156257 0.001249254088784412 0  0.4659488863550298 0.001067707976620331 0  0.471564807260988 0.0008921302908496037 0  0.4776843759254726 0.0007004920228137959 0  0.4831317484445766 0.0005296836585198918 0  0.4892643513384632 0.0003372062279158936 0  0.4948528283485032 0.000161696161435303 0  0.5007056813361916 -2.216943068070812e-05 0  0.5066699093509902 -0.000209526046556915 0  0.5121845298566023 -0.0003826949545447442 0  0.5183439831944545 -0.0005759742926309219 0  0.5238088617282698 -0.0007472800272428554 0  0.5298681543527348 -0.0009369594486414562 0  0.5355929349139432 -0.001115856450691032 0  0.5412927239341832 -0.001293613669039852 0  0.5473668732672543 -0.001482588207084091 0  0.5528259073001393 -0.001651967505962102 0  0.5589819336317072 -0.001842386787779294 0  0.5645100189486582 -0.002012797049529044 0  0.5704524332663232 -0.002195301346534757 0  0.5763298911552834 -0.002375058665203144 0  0.5819006708717119 -0.002544689651648297 0  0.5880413281562127 -0.002730768313747055 0  0.5934904284812221 -0.002895042191696308 0  0.5995995320960693 -0.003078202338538874 0  0.605236779888003 -0.003246210954182579 0  0.6110299855290301 -0.003417806240976177 0  0.6170432999212266 -0.00359472323302265 0  0.6225307972792151 -0.00375505261922207 0  0.6286944373476531 -0.003933803567825084 0  0.6341794289295242 -0.004091634709336539 0  0.6401977648984302 -0.004263413669385436 0  0.6459846030577213 -0.004427148756161272 0  0.6516277670629291 -0.004585409549508515 0  0.6577342305863492 -0.004755038487876419 0  0.6631843111407589 -0.004904958327357115 0  0.6693271588517591 -0.005072208653571043 0  0.6748942591145469 -0.005222152905474348 0  0.6807781354428797 -0.005378892074409919 0  0.6867158102497221 -0.005535201343768038 0  0.6922478556369909 -0.005679100421160843 0  0.6984036264198542 -0.005837205328254034 0  0.7038624132928571 -0.005975584427524931 0  0.7099402809449575 -0.006127588021236129 0  0.7156361945945205 -0.006268012368771779 0  0.7213667017809595 -0.006407263887957157 0  0.7274241898103784 -0.006552202568912044 0  0.7328913375361901 -0.006680980644346233 0  0.7390522654079078 -0.006823736587757829 0  0.7445663161830813 -0.006949337256267011 0  0.7505345306161221 -0.007082931996795786 0  0.7563856967966242 -0.007211490056377221 0  0.7619775509571868 -0.007332073958440476 0  0.7681106054434813 -0.007461725199742056 0  0.7735594228940573 -0.007574589702563127 0  0.7796809699364847 -0.007698739982391196 0  0.7852974086111042 -0.007810142587226769 0  0.7911178568436495 -0.007923025648348906 0  0.797112403703894 -0.008036515862006795 0  0.8026119630288198 -0.008138129173272899 0  0.8087760180262171 -0.008249131188213875 0  0.814253500572072 -0.008345174877796967 0  0.8202905515677629 -0.008448166667805387 0  0.8260544286221699 -0.008543663134562481 0  0.831720415905675 -0.008634807324656511 0  0.8378167080097026 -0.008729817306667463 0  0.8432709709919499 -0.008812108559864256 0  0.8494209576248264 -0.008901791974276371 0  0.8549745826348545 -0.008979924427376591 0  0.8608814329347291 -0.009060026011188804 0  0.8667998142885592 -0.009137155111096256 0  0.8723460990452367 -0.009206568509458774 0  0.8784989383774584 -0.009280301817794542 0  0.8839552890388401 -0.009342788637451834 0  0.8900456692707091 -0.009409293585850673 0  0.8957233874467343 -0.009468190513990782 0  0.9014754209053449 -0.009524786393944277 0  0.9075213579987256 -0.009580921173179099 0  0.9129954731058688 -0.009628765913494807 0  0.9191593188847452 -0.009679229788646495 0  0.9246655330424429 -0.009721240864333262 0  0.9306503084472221 -0.009763603884533442 0  0.9364847200361547 -0.009801580348484516 0  0.9420914259676206 -0.009834972127394636 0  0.948219177636862 -0.009867976960504428 0  0.9536688877131657 -0.009894257783109666 0  0.9597979104438458 -0.009920349306153329 0  0.9654020314719589 -0.009940987600901847 0  0.9712398170272581 -0.009959209624459757 0  0.9772219132298864 -0.009974407121723252 0  0.9827297975109929 -0.009985285083248089 0  0.9888934840407251 -0.009993913310034224 0  0.9943667421923366 -0.009998434045983932 0  1.000414962337846 -0.009999991502249178 0  1.00616395254491 -0.009998125110441144 0  1.011844857354635 -0.009993077234903055 0  1.017933801412069 -0.009984132829796667 0  1.023390946643176 -0.00997301205183276 0  1.029544679732296 -0.009956955598792184 0  1.035089558108845 -0.009939300412459717 0  1.041010936359372 -0.009917116481575694 0  1.04691554237944 -0.00989157814857561 0  1.052471258615448 -0.009864440751261633 0  1.05862104751389 -0.009830897850136421 0  1.064075481579663 -0.009798076706746352 0  1.070173358231585 -0.009757978136698224 0  1.075837941143087 -0.00971752009646258 0  1.081604377355612 -0.009673173917302162 0  1.087640686528322 -0.009623351755525641 0  1.093119387704205 -0.009575135453199036 0  1.099284093826516 -0.009517491101966447 0  1.104783734376909 -0.009463052176492596 0  1.110779897618174 -0.009400480030121557 0  1.116599992234411 -0.00933655469875222 0  1.122217899723542 -0.009271889359757672 0  1.128339818747432 -0.009198135031144493 0  1.133789446190431 -0.00912961705214143 0  1.139923317158062 -0.009049295973540348 0  1.145515844317945 -0.008973134373133167 0  1.151367773813766 -0.008890475161473248 0  1.157336906671575 -0.008803064948780913 0  1.16285160438384 -0.008719557366803981 0  1.16901331600552 -0.008623157866544266 0  1.174481522907442 -0.00853490108265173 0  1.180539122189597 -0.008434191931863186 0  1.186271617394136 -0.008336073959344166 0  1.191966996821913 -0.008235914041393521 0  1.198046448076202 -0.008126091334838595 0  1.203505695906331 -0.008024945109277802 0  1.209661806077474 -0.007908057515838151 0  1.21519584913737 -0.007800455577732041 0  1.221132109188887 -0.00768241304184519 0  1.227019087412133 -0.007562711583992629 0  1.232585135446325 -0.007447155722966398 0  1.238729389023077 -0.007316953404904543 0  1.244180486899644 -0.007199156086382225 0  1.250286093435722 -0.007064709646262071 0  1.255932842016573 -0.006938052500145445 0  1.261716857103797 -0.006806053534187844 0  1.26773845151126 -0.006666245775332091 0  1.273222687278595 -0.006536836953056475 0  1.279386853652711 -0.00638906998029936 0  1.284876650734994 -0.006255450389977176 0  1.290887326898431 -0.00610702037198264 0  1.296685536664392 -0.00596177282270944 0  1.30231949087952 -0.005818744638503708 0  1.308431215520824
[...]
<PointData  Vectors="Traction"> 
<DataArray  type="Float64"  Name="Traction"  NumberOfComponents="3" format="ascii">1.6644668004547157e-05 1.2432144830599623e-02 0.0000000000000000e+00  1.6644668004547157e-05 1.2432144830599623e-02 0.0000000000000000e+00  -1.0242913729451030e-08 -9.6592073662925428e-09 0.0000000000000000e+00  -1.0242913729451030e-08 -9.6592073662925428e-09 0.0000000000000000e+00  -6.4455550974925431e-04 2.0931971829331111e-02 0.0000000000000000e+00  -9.8581189137908042e-04 1.9021888139182753e-02 0.0000000000000000e+00  -1.3390364242264273e-03 1.7630362980985807e-02 0.0000000000000000e+00  -1.8949663549982106e-03 1.9467623658121030e-02 0.0000000000000000e+00  -2.0328037333541670e-03 1.6749927968505305e-02 0.0000000000000000e+00  -3.2905397391934524e-03 2.2800893154955156e-02 0.0000000000000000e+00  -2.4666837708751891e-03 1.4895422235906916e-02 0.0000000000000000e+00  -3.3465073172519117e-03 1.7464254119886752e-02 0.0000000000000000e+00  -4.0018568269471052e-03 1.8573929163907044e-02 0.0000000000000000e+00  -3.7287511344000425e-03 1.5457663105851104e-02 0.0000000000000000e+00  -5.8563767048122693e-03 2.2230955961619673e-02 0.0000000000000000e+00  -4.1418935124426662e-03 1.4477147923763579e-02 0.0000000000000000e+00  -7.1461851543031365e-03 2.2722586577906465e-02 0.0000000000000000e+00  -4.9734833803299419e-03 1.4817005887600597e-02 0.0000000000000000e+00  -6.1545902893437180e-03 1.6980066513644067e-02 0.0000000000000000e+00  -7.3526605880659610e-03 1.8821161648130646e-02 0.0000000000000000e+00  -6.8293982019174641e-03 1.6364503447783285e-02 0.0000000000000000e+00  -7.3999194538244282e-03 1.6640739927736410e-02 0.0000000000000000e+00  -8.4222104530042603e-03 1.7867827532198368e-02 0.0000000000000000e+00  -8.8436401507853302e-03 1.7698639765228393e-02 0.0000000000000000e+00  -8.5850047446518821e-03 1.6435071994241650e-02 0.0000000000000000e+00  -8.9551558501627607e-03 1.6309169734783965e-02 0.0000000000000000e+00  -9.4432772546432266e-03 1.6383709690593478e-02 0.0000000000000000e+00  -9.2906337853931667e-03 1.5379432863686130e-02 0.0000000000000000e+00  -1.3346272909292894e-02 2.0971027495109866e-02 0.0000000000000000e+00  -1.0340842318843437e-02 1.5724569353492316e-02 0.0000000000000000e+00  -1.0912706952795285e-02 1.5903144624958943e-02 0.0000000000000000e+00  -1.0194608979457872e-02 1.4296901026030970e-02 0.0000000000000000e+00  -1.0970289659463259e-02 1.4634102678980921e-02 0.0000000000000000e+00  -1.5869985256301532e-02 2.0178171976661611e-02 0.0000000000000000e+00  -1.1538717257325935e-02 1.4237110652595723e-02 0.0000000000000000e+00  -1.1871116890601557e-02 1.4018524539003907e-02 0.0000000000000000e+00  -1.7629741119797072e-02 1.9955369331843612e-02 0.0000000000000000e+00  -1.1337418798962043e-02 1.2425730978851884e-02 0.0000000000000000e+00  -1.8218576035414477e-02 1.9239022584196786e-02 0.0000000000000000e+00  -1.1234206191717432e-02 1.1436721678721585e-02 0.0000000000000000e+00  -1.8976436575029679e-02 1.8598715669264278e-02 0.0000000000000000e+00  -1.3472120867837153e-02 1.2763448445299048e-02 0.0000000000000000e+00  -1.4073255273861725e-02 1.2826409327376045e-02 0.0000000000000000e+00  -2.0248233523784305e-02 1.7772295582125595e-02 0.0000000000000000e+00  -1.2366468400423075e-02 1.0500986346962659e-02 0.0000000000000000e+00  -2.1249521352830380e-02 1.7380787266869393e-02 0.0000000000000000e+00  -1.4523093653557542e-02 1.1506936069889520e-02 0.0000000000000000e+00  -2.2991725982646694e-02 1.7565851066922836e-02 0.0000000000000000e+00  -1.5516561561843212e-02 1.1552540955994145e-02 0.0000000000000000e+00  -1.7839551262830763e-02 1.2774646377637524e-02 0.0000000000000000e+00  -1.9768550028481147e-02 1.3583104690356727e-02 0.0000000000000000e+00  -1.7284981672035103e-02 1.1457930687232814e-02 0.0000000000000000e+00  -2.3691057125936159e-02 1.5102853176167219e-02 0.0000000000000000e+00  -1.6665183536386775e-02 1.0327339510271290e-02 0.0000000000000000e+00  -1.9848546074623736e-02 1.1829991090048635e-02 0.0000000000000000e+00  -1.8959220422996036e-02 1.0862666047227028e-02 0.0000000000000000e+00  -1.7559138798336146e-02 9.7403734822015167e-03 0.0000000000000000e+00  -2.5251664183272206e-02 1.3623667190466008e-02 0.0000000000000000e+00  -1.6053684350311955e-02 8.2945189048793441e-03 0.0000000000000000e+00  -2.7542440064224852e-02 1.3661136848352230e-02 0.0000000000000000e+00  -1.9106544075649927e-02 9.1424439289066583e-03 0.0000000000000000e+00  -1.8716924122349467e-02 8.5774402102470407e-03 0.0000000000000000e+00  -2.7645540479830033e-02 1.2220940616123058e-02 0.0000000000000000e+00  -1.8317243674047551e-02 7.7610489692576216e-03 0.0000000000000000e+00  -2.9221863982455978e-02 1.1822351753137896e-02 0.0000000000000000e+00  -1.9495345495438094e-02 7.6003150139885480e-03 0.0000000000000000e+00  -2.2726415869800454e-02 8.4768172688647024e-03 0.0000000000000000e+00  -2.4421651538813219e-02 8.6550722069384800e-03 0.0000000000000000e+00  -2.2257941659047858e-02 7.5271485968452876e-03 0.0000000000000000e+00  -2.2639709918094990e-02 7.2978971905345823e-03 0.0000000000000000e+00  -2.5067256309586877e-02 7.6687898053404025e-03 0.0000000000000000e+00  -2.3433652646079450e-02 6.8284116660531071e-03 0.0000000000000000e+00  -2.4075045000778530e-02 6.6906004621478032e-03 0.0000000000000000e+00  -2.5623971068831585e-02 6.7277899921798943e-03 0.0000000000000000e+00  -2.4501483462351589e-02 6.0888885268505361e-03 0.0000000000000000e+00  -2.4419405202388968e-02 5.7048470566574139e-03 0.0000000000000000e+00  -2.5682125529922713e-02 5.5928548131240416e-03 0.0000000000000000e+00  -2.2099323884183751e-02 4.5000349221744514e-03 0.0000000000000000e+00  -3.1622097964195912e-02 6.0111513062347686e-03 0.0000000000000000e+00  -2.1835854093714392e-02 3.8757664561721197e-03 0.0000000000000000e+00  -2.6016107096302171e-02 4.2385429064788777e-03 0.0000000000000000e+00  -2.5154413866483594e-02 3.7273432894787632e-03 0.0000000000000000e+00  -2.2700045848369863e-02 3.0622255794926145e-03 0.0000000000000000e+00  -3.2211553290759191e-02 3.9507375424543620e-03 0.0000000000000000e+00  -2.3302113571847277e-02 2.5038888053486442e-03 0.0000000000000000e+00  -2.3266694049519435e-02 2.1645970930211271e-03 0.0000000000000000e+00  -3.2589906958577539e-02 2.5999969684758280e-03 0.0000000000000000e+00  -2.3437614088584437e-02 1.5313524234915833e-03 0.0000000000000000e+00  -2.4867110696367583e-02 1.2946009818645156e-03 0.0000000000000000e+00  -2.5617698629668142e-02 9.8214065595579342e-04 0.0000000000000000e+00  -2.6303287930367448e-02 6.3045690230995890e-04 0.0000000000000000e+00  -2.5772199280133259e-02 2.6267579302990376e-04 0.0000000000000000e+00  -2.5853927163082914e-02 -9.7653475694172239e-05 0.0000000000000000e+00  -2.6787483618744300e-02 -4.6085733389906520e-04 0.0000000000000000e+00  -2.3730389532807265e-02 -7.2975013148479650e-04 0.0000000000000000e+00  -3.3275018787649810e-02 -1.4499759505629897e-03 0.0000000000000000e+00  -2.3843697903722625e-02 -1.3377625029937143e-03 0.0000000000000000e+00  -2.4430666669648670e-02 -1.6898750730079608e-03 0.0000000000000000e+00  -3.3966431528597463e-02 -2.7493239016567052e-03 0.0000000000000000e+00  -2.1573555395062526e-02 -2.0244661527251619e-03 0.0000000000000000e+00  -3.3811772980826924e-02 -3.5705132945957310e-03 0.0000000000000000e+00  -2.4179966101907237e-02 -2.8750773649097302e-03 0.0000000000000000e+00  -2.5349462990957503e-02 -3.3461250973921635e-03 0.0000000000000000e+00  -2.5550445424350338e-02 -3.6802187940124386e-03 0.0000000000000000e+00  -2.6543352634961857e-02 -4.1963086082375473e-03 0.0000000000000000e+00  -2.4853832488527992e-02 -4.2912602400461877e-03 0.0000000000000000e+00  -2.3842048433888367e-02 -4.4956164862906458e-03 0.0000000000000000e+00  -3.3591241777067550e-02 -6.7605524568871006e-03 0.0000000000000000e+00  -2.5069124837865338e-02 -5.4709190784338040e-03 0.0000000000000000e+00  -2.4662298726793413e-02 -5.8149558040667291e-03 0.0000000000000000e+00  -2.4676885844803882e-02 -6.1651087252021820e-03 0.0000000000000000e+00  -2.5059463884413623e-02 -6.6279260122292603e-03 0.0000000000000000e+00  -2.4702600121676119e-02 -6.9825399101443898e-03 0.0000000000000000e+00  -2.4809471908508875e-02 -7.3902286233187208e-03 0.0000000000000000e+00  -2.5415639717548611e-02 -7.9316322469476491e-03 0.0000000000000000e+00  -2.2702168785776695e-02 -7.4830833728210056e-03 0.0000000000000000e+00  -3.1309747185577420e-02 -1.0850814367520948e-02 0.0000000000000000e+00  -2.0854456957878277e-02 -7.5575607861373189e-03 0.0000000000000000e+00  -2.2424508286398769e-02 -8.5267157963489441e-03 0.0000000000000000e+00  -3.1178686597215424e-02 -1.2236029799649970e-02 0.0000000000000000e+00  -2.1831157606318680e-02 -8.9932880698132787e-03 0.0000000000000000e+00  -3.0786288459527092e-02 -1.3127539124589421e-02 0.0000000000000000e+00  -2.1779033309515163e-02 -9.6872985551291115e-03 0.0000000000000000e+00  -2.0097973498574759e-02 -9.3620076970898775e-03 0.0000000000000000e+00  -2.1674013204079644e-02 -1.0445670096541241e-02 0.0000000000000000e+00  -2.3488735129672318e-02 -1.1722145546577153e-02 0.0000000000000000e+00  -2.2754003803347241e-02 -1.1789665914486590e-02 0.0000000000000000e+00  -1.9742164308424411e-02 -1.0662293208237658e-02 0.0000000000000000e+00  -2.7049006684302389e-02 -1.5131708413932160e-02 0.0000000000000000e+00  -1.9726763388600077e-02 -1.1469962128688374e-02 0.0000000000000000e+00  -2.0072847980993343e-02 -1.2168283720397074e-02 0.0000000000000000e+00  -2.0310184007641102e-02 -1.2710648412126839e-02 0.0000000000000000e+00  -1.9163615561195661e-02 -1.2480170209960206e-02 0.0000000000000000e+00  -1.9432829358009180e-02 -1.3179748767388540e-02 0.0000000000000000e+00  -2.0723720162521886e-02 -1.4532515305525597e-02 0.0000000000000000e+00  -2.0071947046100946e-02 -1.4688621243325936e-02 0.0000000000000000e+00  -1.9193859946194252e-02 -1.4623797654072087e-02 0.0000000000000000e+00  -1.8402005946105696e-02 -1.4602170942807139e-02 0.0000000000000000e+00  -1.9134746683460307e-02 -1.5743334119746398e-02 0.0000000000000000e+00  -1.7298757336964406e-02 -1.4863197317945470e-02 0.0000000000000000e+00  -1.6504786038989964e-02 -1.4791237829530254e-02 0.0000000000000000e+00  -1.8435995492571796e-02 -1.7162121619010835e-02 0.0000000000000000e+00  -1.6244187146732557e-02 -1.5811259099542070e-02 0.0000000000000000e+00  -1.5877850725177771e-02 -1.6026283965621665e-02 0.0000000000000000e+00  -1.6541945815712472e-02 -1.7369827813211398e-02 0.0000000000000000e+00  -1.5012059210678974e-02 -1.6408780801056348e-02 0.0000000000000000e+00  -1.4265637715800814e-02 -1.6293440165961012e-02 0.0000000000000000e+00  -1.9157802893290807e-02 -2.2720676727197544e-02 0.0000000000000000e+00  -1.2750730684098125e-02 -1.5781913748133296e-02 0.0000000000000000e+00  -1.3108125165881553e-02 -1.7068560345803854e-02 0.0000000000000000e+00  -1.3678157063753648e-02 -1.8593998988226466e-02 0.0000000000000000e+00  -1.2195929951038544e-02 -1.7442076750201492e-02 0.0000000000000000e+00  -1.1486533348107023e-02 -1.7264918447413655e-02 0.0000000000000000e+00  -1.2567769301739657e-02 -1.9860941236626635e-02 0.0000000000000000e+00  -1.0856989423654788e-02 -1.8205819472369805e-02 0.0000000000000000e+00  -1.0423615467447385e-02 -1.8385665815739187e-02 0.0000000000000000e+00  -1.0582340668986967e-02 -1.9786762395854099e-02 0.0000000000000000e+00  -9.3842194622258488e-03 -1.8599578696709685e-02 0.0000000000000000e+00  -8.5515552029696833e-03 -1.8043663520824069e-02 0.0000000000000000e+00  -1.1202407159106866e-02 -2.5070471368496685e-02 0.0000000000000000e+00  -7.1965501419181043e-03 -1.7161573755754833e-02 0.0000000000000000e+00  -7.2734474078093598e-03 -1.8801443153802635e-02 0.0000000000000000e+00  -7.3350716279414925e-03 -2.0423572762315042e-02 0.0000000000000000e+00  -6.2428108019511978e-03 -1.8995756172720379e-02 0.0000000000000000e+00  -5.6053687512227319e-03 -1.8649903053192269e-02 0.0000000000000000e+00  -5.8229349385297367e-03 -2.1354591574018533e-02 0.0000000000000000e+00  -4.7105915346563063e-03 -1.9393029275589214e-02 0.0000000000000000e+00  -4.2692108209334669e-03 -1.9558234743449001e-02 0.0000000000000000e+00  -3.9764042274219287e-03 -2.0935297484492063e-02 0.0000000000000000e+00  -3.1885957527485499e-03 -1.9456360226591477e-02 0.0000000000000000e+00  -2.5932012094802225e-03 -1.9107983389857631e-02 0.0000000000000000e+00  -2.9126472400346961e-03 -2.6452328293088388e-02 0.0000000000000000e+00  -1.5659089565339505e-03 -1.8270293262082137e-02 0.0000000000000000e+00  -1.0820457308985017e-03 -1.9474882274695963e-02 0.0000000000000000e+00  -6.3151986647482883e-04 -2.1042882159704235e-02 0.0000000000000000e+00  -3.6987616426781645e-05 -1.9679599224041028e-02 0.0000000000000000e+00  4.7643590621111379e-04 -1.9131542301470260e-02 0.0000000000000000e+00  1.1536399667163774e-03 -2.1931160858939182e-02 0.0000000000000000e+00  1.6039943792126000e-03 -1.9760262893338355e-02 0.0000000000000000e+00  2.1001605574468545e-03 -1.9837337319226166e-02 0.0000000000000000e+00  2.8571876798927998e-03 -2.1148883106951875e-02 0.0000000000000000e+00  3.1573910326206968e-03 -1.9587290762312179e-02 0.0000000000000000e+00  3.5328366516896078e-03 -1.8638100025234288e-02 0.0000000000000000e+00  5.6629892605134097e-03 -2.6059355163133614e-02 0.0000000000000000e+00  4.3166616778707910e-03 -1.7854839520391578e-02 0.0000000000000000e+00  5.2234254520382240e-03 -1.9195203111954051e-02 0.0000000000000000e+00  6.1954733352448024e-03 -2.0681953877895454e-02 0.0000000000000000e+00  6.3039153166870084e-03 -1.9157692170818232e-02 0.0000000000000000e+00  6.6597563519599128e-03 -1.8630654893373646e-02 0.0000000000000000e+00  8.2773618712318059e-03 -2.1334930052375935e-02 0.0000000000000000e+00  7.2992953786827439e-03 -1.7402782542993021e-02 0.0000000000000000e+00  1.0774726262956618e-02 -2.4139847070235008e-02 0.0000000000000000e+00  8.2535459801409417e-03 -1.7303196016907066e-02 0.0000000000000000e+00  9.3723593792189551e-03 -1.8502044746052018e-02 0.0000000000000000e+00  1.0000374945557437e-02 -1.8562422837940538e-02 0.0000000000000000e+00  1.1197197903967377e-02 -1.9566268872908642e-02 0.0000000000000000e+00  1.0268858233040419e-02 -1.7027018264877073e-02 0.0000000000000000e+00  1.4566054710287168e-02 -2.2941721376940800e-02 0.0000000000000000e+00  1.1142772601214580e-02 -1.6766277766664589e-02 0.0000000000000000e+00  1.1967338042749926e-02 -1.7133777290775996e-02 0.0000000000000000e+00  1.2604127199503072e-02 -1.7307128236416412e-02 0.0000000000000000e+00  1.3505992599047787e-02 -1.7623925561196838e-02 0.0000000000000000e+00  1.3607196630406758e-02 -1.7004916732596059e-02 0.0000000000000000e+00  1.3555540502515374e-02 -1.6312931395817177e-02 0.0000000000000000e+00  1.4694696434947788e-02 -1.6722090322226022e-02 0.0000000000000000e+00  1.4905316267018350e-02 -1.6389827832497084e-02 0.0000000000000000e+00  1.5518570104518171e-02 -1.6384884296627843e-02 0.0000000000000000e+00  1.6535281605939565e-02 -1.6644570149536429e-02 0.0000000000000000e+00  1.5206160576053557e-02 -1.4726723698142027e-02 0.0000000000000000e+00  2.1310304354657094e-02 -1.9825149418707600e-02 0.0000000000000000e+00  1.6095673199832173e-02 -1.4405289765280490e-02 0.0000000000000000e+00  1.7026841164099655e-02 -1.4658310130910969e-02 0.0000000000000000e+00  1.7391345332113298e-02 -1.4450106818754036e-02 0.0000000000000000e+00  1.8436211415364924e-02 -1.4617048313825503e-02 0.0000000000000000e+00  1.8265614814117512e-02 -1.3985081718357382e-02 0.0000000000000000e+00  1.8120327625189239e-02 -1.3427934043712923e-02 0.0000000000000000e+00  1.9491758507407007e-02 -1.3800539170659475e-02 0.0000000000000000e+00  2.0100150428921441e-02 -1.3819782169687954e-02 0.0000000000000000e+00  1.9784994776132599e-02 -1.3053949351480248e-02 0.0000000000000000e+00  2.1568056521164537e-02 -1.3649074693779271e-02 0.0000000000000000e+00  1.9826433706996952e-02 -1.2119438508454108e-02 0.0000000000000000e+00  2.6834726937886709e-02 -1.5862087735575122e-02 0.0000000000000000e+00  2.0232738989482125e-02 -1.1567887878816152e-02 0.0000000000000000e+00  2.1217923178788421e-02 -1.1662638377561256e-02 0.0000000000000000e+00  2.1762625338561766e-02 -1.1535172413016636e-02 0.0000000000000000e+00  2.3480096316914192e-02 -1.1933994970374152e-02 0.0000000000000000e+00  2.2824487000868188e-02 -1.1229044377336612e-02 0.0000000000000000e+00  2.0363983473829877e-02 -9.6642799603805316e-03 0.0000000000000000e+00  3.0201654696788215e-02 -1.3672517252203621e-02 0.0000000000000000e+00  2.0433371182419585e-02 -8.9426836143831831e-03 0.0000000000000000e+00  2.3184396971916769e-02 -9.6782318335284535e-03 0.0000000000000000e+00  2.4602392817348523e-02 -9.7788624086142598e-03 0.0000000000000000e+00  2.2502706328103392e-02 -8.5543148123508571e-03 0.0000000000000000e+00  3.0669876217086060e-02 -1.1137702451126415e-02 0.0000000000000000e+00  2.2931033243669414e-02 -7.9286986967833060e-03 0.0000000000000000e+00  2.3155498303874405e-02 -7.5694869470317276e-03 0.0000000000000000e+00  2.4204057217396994e-02 -7.4983277840237929e-03 0.0000000000000000e+00  2.6526949242343164e-02 -7.7471730275071194e-03 0.0000000000000000e+00  2.4735262309479571e-02 -6.8755731301581953e-03 0.0000000000000000e+00  2.5564021653987360e-02 -6.7534551201553911e-03 0.0000000000000000e+00  2.6788540551138849e-02 -6.6413995072798762e-03 0.0000000000000000e+00  2.5591744195962746e-02 -5.9823665096873004e-03 0.0000000000000000e+00  2.3188912904264451e-02 -5.0544489208481933e-03 0.0000000000000000e+00  3.4046935244587816e-02 -6.8723152471642391e-03 0.0000000000000000e+00  2.2213335968978974e-02 -4.1676459285186554e-03 0.0000000000000000e+00  3.3341910200900930e-02 -5.7578461834437815e-03 0.0000000000000000e+00  2.4041521478093228e-02 -3.8094807537042467e-03 0.0000000000000000e+00  2.3507028854101938e-02 -3.3874678070379529e-03 0.0000000000000000e+00  3.3123413513417535e-02 -4.3640168465138981e-03 0.0000000000000000e+00  2.3941165390351290e-02 -2.8482807090940711e-03 0.0000000000000000e+00  2.5419489505968243e-02 -2.6940916897780364e-03 0.0000000000000000e+00  2.6280133091114859e-02 -2.4203322340254755e-03 0.0000000000000000e+00  2.6982618122625805e-02 -2.0728988783147492e-03 0.0000000000000000e+00  2.6498062804357733e-02 -1.6725030158182754e-03 0.0000000000000000e+00  2.6397917141031207e-02 -1.2915006182882211e-03 0.0000000000000000e+00  2.7203697484136181e-02 -9.3612123346230953e-04 0.0000000000000000e+00  2.3702955499996150e-02 -4.9734257576165787e-04 0.0000000000000000e+00  3.3768530859969358e-02 -2.3783087446748802e-04 0.0000000000000000e+00  2.0246762369243092e-02 1.1700720202071426e-04 0.0000000000000000e+00  3.3875392554355309e-02 7.0147518012894628e-04 0.0000000000000000e+00  2.2970783319237097e-02 7.7335447218192547e-04 0.0000000000000000e+00  2.6800098564336176e-02 1.2895858799131267e-03 0.0000000000000000e+00  2.6459101385939012e-02 1.6496400298776719e-03 0.0000000000000000e+00  2.4645309928428876e-02 1.8554113782767825e-03 0.0000000000000000e+00  2.7129010364873068e-02 2.3891916857930956e-03 0.0000000000000000e+00  2.4539265471046564e-02 2.4792075518905478e-03 0.0000000000000000e+00  2.2876131706528847e-02 2.5830615181248293e-03 0.0000000000000000e+00  3.3068398320936686e-02 4.0837997827840129e-03 0.0000000000000000e+00  2.4621995755340666e-02 3.3668660420823203e-03 0.0000000000000000e+00  2.4298747960010116e-02 3.6474982196681499e-03 0.0000000000000000e+00  2.5130863757581570e-02 4.0911354405061681e-03 0.0000000000000000e+00  2.6314296169884708e-02 4.6248597938665743e-03 0.0000000000000000e+00  2.3983171300518278e-02 4.5373417598439936e-03 0.0000000000000000e+00  2.3818229988978357e-02 4.8320332544419435e-03 0.0000000000000000e+00  2.3761589439047305e-02 5.1305993639572016e-03 0.0000000000000000e+00  2.4205691594606827e-02 5.5585425745625881e-03 0.0000000000000000e+00  2.5142413101540421e-02 6.0823700495084071e-03 0.0000000000000000e+00  2.5331523300051607e-02 6.5037678285073831e-03 0.0000000000000000e+00  2.1876313834369408e-02 5.9647153056019420e-03 0.0000000000000000e+00  3.0737014252