<?xml version="1.0"?>
<VTKFile type="UnstructuredGrid"  version="0.1"  >
<UnstructuredGrid>
<Piece  NumberOfPoints="4268" NumberOfCells="6752">
<Points>
<DataArray  type="Float64"  NumberOfComponents="3"  format="ascii">0 0.01 0  10 0.01 0  0 1.028869273702567 0  10 1.028869273702567 0  0.007129524987038337 0.009997491741717768 0  0.01258064459049757 0.00999219056738478 0  0.01872173241756402 0.009982708334120727 0  0.02429919625640796 0.009970876572043954 0  0.03017238705920286 0.009955108531615313 0  0.03612352734296466 0.0099356743715591 0  0.04164979236492252 0.009914517792428084 0  0.04780928449023854 0.009887415768096998 0  0.05327287671237849 0.009860276931383746 0  0.0593436395885565 0.009826715421083503 0  0.06505608699933001 0.009791870631895848 0  0.07077243060783153 0.009753845329312128 0  0.07684085351634186 0.009710036052663748 0  0.08230528612367993 0.009667566921662384 0  0.08846525752759338 0.009616276826848907 0  0.09398926586603956 0.0095672187064786 0  0.09994377871281757 0.009511110804477986 0  0.10581288515308 0.009452550633355501 0  0.1113930001121819 0.009393893683773193 0  0.1175326299024069 0.009326020378011352 0  0.122983161250664 0.009262856809916281 0  0.1290978349347763 0.009188765415777931 0  0.1347300222736412 0.00911751981665075 0  0.1405327472005438 0.009041131768776852 0  0.1465421455697866 0.008958856277281909 0  0.1520341809431761 0.008880870879718691 0  0.1581991754706344 0.00879018143976357 0  0.1636834803794234 0.008706732874359017 0  0.1697073563005918 0.008612096527554045 0  0.1754901396361989 0.008518345936558386 0  0.1811391035120075 0.008424050210098115 0  0.1872444279222087 0.00831915423323064 0  0.1926961446341008 0.008222899998379215 0  0.198841090009393 0.008111516418624823 0  0.2044064770158165 0.008008028244452866 0  0.2102948627703611 0.007895869216798803 0  0.2162299794791283 0.007780085801116003 0  0.2217647046821167 0.007669675498109103 0  0.2279204403470532 0.007544154739747676 0  0.2333791472114919 0.007430485124751003 0  0.2394590817234977 0.0073013084386626 0  0.245152498789355 0.007177928079207972 0  0.2508861115607116 0.007051356111670669 0  0.2569419868439766 0.006915186417023598 0  0.2624099649457279 0.006790084113692359 0  0.2685711825796066 0.006646722567663751 0  0.274083748205357 0.006516341894728842 0  0.2800541704182985 0.00637292855786236 0  0.2859022845836161 0.006230279166502627 0  0.291495955429921 0.006091868246150131 0  0.2976275706217687 0.005937986548763313 0  0.3030757324287757 0.005799406374294222 0  0.3091980118239236 0.005641654227187252 0  0.3148109405089491 0.005495191514879527 0  0.3206341933715942 0.005341435282378838 0  0.3266248575896781 0.005181393525330103 0  0.3321252080346692 0.005032833254881577 0  0.3382880718234609 0.004864596209960478 0  0.3437628463580178 0.004713611578807419 0  0.3498021006600692 0.004545443593512952 0  0.3555594631656461 0.004383601001460968 0  0.3612291099056053 0.004222822711549606 0  0.3673210805066339 0.004048576418709386 0  0.3727746135437823 0.003891330909934085 0  0.3789246700786391 0.003712634483246944 0  0.3844721023230384 0.00355025746928806 0  0.3903845048135511 0.003376011435332509 0  0.3962935688476314 0.003200699755406988 0  0.4018430601204535 0.00303505085978487 0  0.4079921977692303 0.002850427660455144 0  0.4134449905916002 0.002685819499171436 0  0.4195385366679084 0.002500937932218923 0  0.425204482428441 0.002328206591247292 0  0.4309651825948974 0.00215183074136113 0  0.4370014133195289 0.001966263547608745 0  0.4424769325836848 0.00179732019881714 0  0.4486395183564056 0.001606544730410899 0  0.4541373275735043 0.001435838569361521 0  0.4601308451156257 0.001249254088784412 0  0.4659488863550298 0.001067707976620331 0  0.471564807260988 0.0008921302908496037 0  0.4776843759254726 0.0007004920228137959 0  0.4831317484445766 0.0005296836585198918 0  0.4892643513384632 0.0003372062279158936 0  0.4948528283485032 0.000161696161435303 0  0.5007056813361916 -2.216943068070812e-05 0  0.5066699093509902 -0.000209526046556915 0  0.5121845298566023 -0.0003826949545447442 0  0.5183439831944545 -0.0005759742926309219 0  0.5238088617282698 -0.0007472800272428554 0  0.5298681543527348 -0.0009369594486414562 0  0.5355929349139432 -0.001115856450691032 0  0.5412927239341832 -0.001293613669039852 0  0.5473668732672543 -0.001482588207084091 0  0.5528259073001393 -0.001651967505962102 0  0.5589819336317072 -0.001842386787779294 0  0.5645100189486582 -0.002012797049529044 0  0.5704524332663232 -0.002195301346534757 0  0.5763298911552834 -0.002375058665203144 0  0.5819006708717119 -0.002544689651648297 0  0.5880413281562127 -0.002730768313747055 0  0.5934904284812221 -0.002895042191696308 0  0.5995995320960693 -0.003078202338538874 0  0.605236779888003 -0.003246210954182579 0  0.6110299855290301 -0.003417806240976177 0  0.6170432999212266 -0.00359472323302265 0  0.6225307972792151 -0.00375505261922207 0  0.6286944373476531 -0.003933803567825084 0  0.6341794289295242 -0.004091634709336539 0  0.6401977648984302 -0.004263413669385436 0  0.6459846030577213 -0.004427148756161272 0  0.6516277670629291 -0.004585409549508515 0  0.6577342305863492 -0.004755038487876419 0  0.6631843111407589 -0.004904958327357115 0  0.6693271588517591 -0.005072208653571043 0  0.6748942591145469 -0.005222152905474348 0  0.6807781354428797 -0.005378892074409919 0  0.6867158102497221 -0.005535201343768038 0  0.6922478556369909 -0.005679100421160843 0  0.6984036264198542 -0.005837205328254034 0  0.7038624132928571 -0.005975584427524931 0  0.7099402809449575 -0.006127588021236129 0  0.7156361945945205 -0.006268012368771779 0  0.7213667017809595 -0.006407263887957157 0  0.7274241898103784 -0.006552202568912044 0  0.7328913375361901 -0.006680980644346233 0  0.7390522654079078 -0.006823736587757829 0  0.7445663161830813 -0.006949337256267011 0  0.7505345306161221 -0.007082931996795786 0  0.7563856967966242 -0.007211490056377221 0  0.7619775509571868 -0.007332073958440476 0  0.7681106054434813 -0.007461725199742056 0  0.7735594228940573 -0.007574589702563127 0  0.7796809699364847 -0.007698739982391196 0  0.7852974086111042 -0.007810142587226769 0  0.7911178568436495 -0.007923025648348906 0  0.797112403703894 -0.008036515862006795 0  0.8026119630288198 -0.008138129173272899 0  0.8087760180262171 -0.008249131188213875 0  0.814253500572072 -0.008345174877796967 0  0.8202905515677629 -0.008448166667805387 0  0.8260544286221699 -0.008543663134562481 0  0.831720415905675 -0.008634807324656511 0  0.8378167080097026 -0.008729817306667463 0  0.8432709709919499 -0.008812108559864256 0  0.8494209576248264 -0.008901791974276371 0  0.8549745826348545 -0.008979924427376591 0  0.8608814329347291 -0.009060026011188804 0  0.8667998142885592 -0.009137155111096256 0  0.8723460990452367 -0.009206568509458774 0  0.8784989383774584 -0.009280301817794542 0  0.8839552890388401 -0.009342788637451834 0  0.8900456692707091 -0.009409293585850673 0  0.8957233874467343 -0.009468190513990782 0  0.9014754209053449 -0.009524786393944277 0  0.9075213579987256 -0.009580921173179099 0  0.9129954731058688 -0.009628765913494807 0  0.9191593188847452 -0.009679229788646495 0  0.9246655330424429 -0.009721240864333262 0  0.9306503084472221 -0.009763603884533442 0  0.9364847200361547 -0.009801580348484516 0  0.9420914259676206 -0.009834972127394636 0  0.948219177636862 -0.009867976960504428 0  0.9536688877131657 -0.009894257783109666 0  0.9597979104438458 -0.009920349306153329 0  0.9654020314719589 -0.009940987600901847 0  0.9712398170272581 -0.009959209624459757 0  0.9772219132298864 -0.009974407121723252 0  0.9827297975109929 -0.009985285083248089 0  0.9888934840407251 -0.009993913310034224 0  0.9943667421923366 -0.009998434045983932 0  1.000414962337846 -0.009999991502249178 0  1.00616395254491 -0.009998125110441144 0  1.011844857354635 -0.009993077234903055 0  1.017933801412069 -0.009984132829796667 0  1.023390946643176 -0.00997301205183276 0  1.029544679732296 -0.009956955598792184 0  1.035089558108845 -0.009939300412459717 0  1.041010936359372 -0.009917116481575694 0  1.04691554237944 -0.00989157814857561 0  1.052471258615448 -0.009864440751261633 0  1.05862104751389 -0.009830897850136421 0  1.064075481579663 -0.009798076706746352 0  1.070173358231585 -0.009757978136698224 0  1.075837941143087 -0.00971752009646258 0  1.081604377355612 -0.009673173917302162 0  1.087640686528322 -0.009623351755525641 0  1.093119387704205 -0.009575135453199036 0  1.099284093826516 -0.009517491101966447 0  1.104783734376909 -0.009463052176492596 0  1.110779897618174 -0.009400480030121557 0  1.116599992234411 -0.00933655469875222 0  1.122217899723542 -0.009271889359757672 0  1.128339818747432 -0.009198135031144493 0  1.133789446190431 -0.00912961705214143 0  1.139923317158062 -0.009049295973540348 0  1.145515844317945 -0.008973134373133167 0  1.151367773813766 -0.008890475161473248 0  1.157336906671575 -0.008803064948780913 0  1.16285160438384 -0.008719557366803981 0  1.16901331600552 -0.008623157866544266 0  1.174481522907442 -0.00853490108265173 0  1.180539122189597 -0.008434191931863186 0  1.186271617394136 -0.008336073959344166 0  1.191966996821913 -0.008235914041393521 0  1.198046448076202 -0.008126091334838595 0  1.203505695906331 -0.008024945109277802 0  1.209661806077474 -0.007908057515838151 0  1.21519584913737 -0.007800455577732041 0  1.221132109188887 -0.00768241304184519 0  1.227019087412133 -0.007562711583992629 0  1.232585135446325 -0.007447155722966398 0  1.238729389023077 -0.007316953404904543 0  1.244180486899644 -0.007199156086382225 0  1.250286093435722 -0.007064709646262071 0  1.255932842016573 -0.006938052500145445 0  1.261716857103797 -0.006806053534187844 0  1.26773845151126 -0.006666245775332091 0  1.273222687278595 -0.006536836953056475 0  1.279386853652711 -0.00638906998029936 0  1.284876650734994 -0.006255450389977176 0  1.290887326898431 -0.00610702037198264 0  1.296685536664392 -0.00596177282270944 0  1.30231949087952 -0.005818744638503708 0  1.308431215520824
[...]
<PointData  Vectors="Traction"> 
<DataArray  type="Float64"  Name="Traction"  NumberOfComponents="3" format="ascii">2.9837175286324808e-05 9.5969300399532925e-03 0.0000000000000000e+00  2.9837175286324808e-05 9.5969300399532925e-03 0.0000000000000000e+00  2.9057589248019024e-09 -7.7643538901271440e-09 0.0000000000000000e+00  2.9057589248019024e-09 -7.7643538901271440e-09 0.0000000000000000e+00  -5.4920548878624193e-04 1.6121532933764688e-02 0.0000000000000000e+00  -8.4464573645779393e-04 1.4645229434437223e-02 0.0000000000000000e+00  -1.1573464127200236e-03 1.3568820067057209e-02 0.0000000000000000e+00  -1.6438746173356991e-03 1.4989032060597951e-02 0.0000000000000000e+00  -1.7644520804127799e-03 1.2890178955420500e-02 0.0000000000000000e+00  -2.8647355553756541e-03 1.7559782107133898e-02 0.0000000000000000e+00  -2.1512249644999809e-03 1.1497714822325908e-02 0.0000000000000000e+00  -2.9294789477326182e-03 1.3516371688605639e-02 0.0000000000000000e+00  -3.5033234563397447e-03 1.4349237771465406e-02 0.0000000000000000e+00  -3.2791429274096535e-03 1.1962124177098426e-02 0.0000000000000000e+00  -5.1453005273008438e-03 1.7168714674811944e-02 0.0000000000000000e+00  -3.6389977394980723e-03 1.1207310067366397e-02 0.0000000000000000e+00  -6.2832669232067420e-03 1.7531545514285117e-02 0.0000000000000000e+00  -4.3779282505589535e-03 1.1462255387482616e-02 0.0000000000000000e+00  -5.4453788256055074e-03 1.3184508017621995e-02 0.0000000000000000e+00  -6.4482492116991839e-03 1.4469004167659796e-02 0.0000000000000000e+00  -6.1308690161458327e-03 1.2887427796531915e-02 0.0000000000000000e+00  -6.4735403863833167e-03 1.2762785464800357e-02 0.0000000000000000e+00  -7.6495747140422812e-03 1.4182776142431557e-02 0.0000000000000000e+00  -7.3104079816837435e-03 1.2795884340722022e-02 0.0000000000000000e+00  -7.6606638056299419e-03 1.2803403174273807e-02 0.0000000000000000e+00  -8.3858198918936658e-03 1.3219993509106649e-02 0.0000000000000000e+00  -8.3165326458521354e-03 1.2544738841025112e-02 0.0000000000000000e+00  -8.0666513467607254e-03 1.1646405540985031e-02 0.0000000000000000e+00  -1.1812860105075314e-02 1.6214899918963160e-02 0.0000000000000000e+00  -9.1333779928580439e-03 1.2110853126530626e-02 0.0000000000000000e+00  -9.1402978043611301e-03 1.1538712319682272e-02 0.0000000000000000e+00  -9.4795030852454845e-03 1.1445372551133185e-02 0.0000000000000000e+00  -1.0657546003352766e-02 1.2288567289900245e-02 0.0000000000000000e+00  -1.5476739201735272e-02 1.7156915580626431e-02 0.0000000000000000e+00  -6.5618955140699159e-03 7.0142901226171433e-03 0.0000000000000000e+00  -1.4462498775510599e-02 1.4740354425180487e-02 0.0000000000000000e+00  -1.4064015826235602e-02 1.3844011961484753e-02 0.0000000000000000e+00  -9.2943220763662404e-03 8.8859094670012788e-03 0.0000000000000000e+00  -1.6050279090085617e-02 1.4708737079699037e-02 0.0000000000000000e+00  -1.0529676584088193e-02 9.4257081769759526e-03 0.0000000000000000e+00  -1.1323398149367276e-02 9.8316885146858303e-03 0.0000000000000000e+00  -1.2906314396642402e-02 1.0662077082124280e-02 0.0000000000000000e+00  -1.8753052915401115e-02 1.4835478645872776e-02 0.0000000000000000e+00  -1.3667226670918629e-02 1.0659846801800000e-02 0.0000000000000000e+00  -1.1490963855816742e-02 8.6638114965965907e-03 0.0000000000000000e+00  -1.9142062586206883e-02 1.3841945236321497e-02 0.0000000000000000e+00  -1.1793975749672213e-02 8.2855601984477435e-03 0.0000000000000000e+00  -1.9333458741695838e-02 1.3096005130881489e-02 0.0000000000000000e+00  -1.3752914554170919e-02 9.0094020613079792e-03 0.0000000000000000e+00  -1.5527233323449297e-02 9.7950597324107571e-03 0.0000000000000000e+00  -1.5745657087506002e-02 9.5690559059363519e-03 0.0000000000000000e+00  -1.7380455810860316e-02 1.0162919281955389e-02 0.0000000000000000e+00  -1.6423391439459551e-02 9.2963296020551738e-03 0.0000000000000000e+00  -1.4637634348693104e-02 7.9644290622914535e-03 0.0000000000000000e+00  -2.1258314803332224e-02 1.1108966172528215e-02 0.0000000000000000e+00  -2.1910946249468492e-02 1.1085964806960938e-02 0.0000000000000000e+00  -1.4042391688833459e-02 6.9230743107320265e-03 0.0000000000000000e+00  -2.3301793025909404e-02 1.1038319735914043e-02 0.0000000000000000e+00  -1.3326116084801849e-02 6.1148449554119851e-03 0.0000000000000000e+00  -2.3763363993345953e-02 1.0533887250086480e-02 0.0000000000000000e+00  -1.6168724495370053e-02 6.9454294776856006e-03 0.0000000000000000e+00  -1.8747476565591451e-02 7.7666544849958321e-03 0.0000000000000000e+00  -1.9349121469539390e-02 7.6900319133392141e-03 0.0000000000000000e+00  -1.8773758300416325e-02 7.1537510512276400e-03 0.0000000000000000e+00  -2.5404063801318891e-02 9.2347915571433185e-03 0.0000000000000000e+00  -1.6656733951635461e-02 5.8493577709959246e-03 0.0000000000000000e+00  -2.7532195055264972e-02 9.1714475217532388e-03 0.0000000000000000e+00  -1.2553241179964163e-02 4.0066168062147340e-03 0.0000000000000000e+00  -2.7238573984527732e-02 8.2689407437822882e-03 0.0000000000000000e+00  -2.5014727102116954e-02 7.2888349936336399e-03 0.0000000000000000e+00  -1.9816409578546614e-02 5.5613178917677730e-03 0.0000000000000000e+00  -2.0324374168480649e-02 5.4573392704611945e-03 0.0000000000000000e+00  -1.6653490500507632e-02 4.2689000791293324e-03 0.0000000000000000e+00  -2.5713019108348424e-02 6.2415852543548523e-03 0.0000000000000000e+00  -2.5849608438738691e-02 5.9576292456195515e-03 0.0000000000000000e+00  -1.7112476529069689e-02 3.7681109818055668e-03 0.0000000000000000e+00  -2.8662510234447287e-02 5.8710789520616735e-03 0.0000000000000000e+00  -1.9463444654998708e-02 3.7341536244606594e-03 0.0000000000000000e+00  -1.9638193307544540e-02 3.5123569289258420e-03 0.0000000000000000e+00  -2.8440883522866296e-02 4.7533684850455402e-03 0.0000000000000000e+00  -1.9322116642261928e-02 2.9718401049274629e-03 0.0000000000000000e+00  -2.3476766312166688e-02 3.2917156880774242e-03 0.0000000000000000e+00  -2.2080881369947927e-02 2.8024787753162085e-03 0.0000000000000000e+00  -2.3087783581103288e-02 2.6652749736175000e-03 0.0000000000000000e+00  -2.3543726185823823e-02 2.4389114032559826e-03 0.0000000000000000e+00  -3.0691046430709086e-02 2.8227793554139453e-03 0.0000000000000000e+00  -2.1385695948815949e-02 1.7547627354170096e-03 0.0000000000000000e+00  -2.2410573383294077e-02 1.5531463846565634e-03 0.0000000000000000e+00  -2.4522374031294977e-02 1.4015900544935168e-03 0.0000000000000000e+00  -2.1706082325205715e-02 9.7787345279727795e-04 0.0000000000000000e+00  -2.9623980100489000e-02 1.0121706560982885e-03 0.0000000000000000e+00  -2.2210556056901011e-02 5.0331226489078683e-04 0.0000000000000000e+00  -2.2735447028134990e-02 2.4773168572599259e-04 0.0000000000000000e+00  -2.2745672050152547e-02 -1.0324804194724815e-05 0.0000000000000000e+00  -2.2670534636699487e-02 -2.8577781973714066e-04 0.0000000000000000e+00  -2.3647438842630361e-02 -5.7781949779056390e-04 0.0000000000000000e+00  -2.3016555185990200e-02 -8.2746688901250663e-04 0.0000000000000000e+00  -3.0695099257273196e-02 -1.4667729641261501e-03 0.0000000000000000e+00  -2.1986536983526345e-02 -1.3058714044871336e-03 0.0000000000000000e+00  -2.3777518855810510e-02 -1.7119871083522500e-03 0.0000000000000000e+00  -2.4439544559504509e-02 -2.0333969010761523e-03 0.0000000000000000e+00  -2.1574179449508336e-02 -2.0692154032384475e-03 0.0000000000000000e+00  -2.9991469320161796e-02 -3.2482215020178777e-03 0.0000000000000000e+00  -1.9650090867385575e-02 -2.3746351003572181e-03 0.0000000000000000e+00  -2.2736552887290443e-02 -3.0450930330992785e-03 0.0000000000000000e+00  -2.3700174828897986e-02 -3.4308471187993305e-03 0.0000000000000000e+00  -2.3693707000938563e-02 -3.7308756126922778e-03 0.0000000000000000e+00  -2.2471458722965895e-02 -3.8287977188265800e-03 0.0000000000000000e+00  -2.2693061484728543e-02 -4.1264726019244339e-03 0.0000000000000000e+00  -2.3417689277482879e-02 -4.5333944024744761e-03 0.0000000000000000e+00  -2.2821551820488038e-02 -4.7478770282391993e-03 0.0000000000000000e+00  -2.2607671924908992e-02 -5.0033301647995345e-03 0.0000000000000000e+00  -2.3008377022280192e-02 -5.3624679896608742e-03 0.0000000000000000e+00  -2.0654681970071889e-02 -5.1229449557721801e-03 0.0000000000000000e+00  -2.8150756951829080e-02 -7.3207930172911615e-03 0.0000000000000000e+00  -2.0628612375160546e-02 -5.6731148209920998e-03 0.0000000000000000e+00  -2.1407518556251715e-02 -6.2124127810529754e-03 0.0000000000000000e+00  -2.1358564531320356e-02 -6.4979345635454511e-03 0.0000000000000000e+00  -2.1758975826402013e-02 -6.9155424900198470e-03 0.0000000000000000e+00  -2.1140679640475467e-02 -7.0555978423031797e-03 0.0000000000000000e+00  -1.8860433360274681e-02 -6.6067607302920141e-03 0.0000000000000000e+00  -2.7357512510442290e-02 -9.9368362997176649e-03 0.0000000000000000e+00  -1.8481528080374111e-02 -7.0240016251952656e-03 0.0000000000000000e+00  -2.0629767630992200e-02 -8.2127490761435308e-03 0.0000000000000000e+00  -2.0888898928034094e-02 -8.6237648317034968e-03 0.0000000000000000e+00  -2.0451390698724880e-02 -8.8036522116953578e-03 0.0000000000000000e+00  -1.7673442639882121e-02 -7.9486835427988317e-03 0.0000000000000000e+00  -2.4347508209094815e-02 -1.1437730099373452e-02 0.0000000000000000e+00  -1.6979457601108035e-02 -8.2239405684467349e-03 0.0000000000000000e+00  -1.9189360029564128e-02 -9.5811768377380025e-03 0.0000000000000000e+00  -1.9417723529662458e-02 -1.0121502010840815e-02 0.0000000000000000e+00  -1.8358404655630885e-02 -1.0005975002258635e-02 0.0000000000000000e+00  -1.8151475130503001e-02 -1.0297032311946551e-02 0.0000000000000000e+00  -1.8357713987960142e-02 -1.0820995502579105e-02 0.0000000000000000e+00  -1.7690895657928963e-02 -1.0903420823811938e-02 0.0000000000000000e+00  -1.7419245837400892e-02 -1.1220854551177932e-02 0.0000000000000000e+00  -1.6744344477422006e-02 -1.1195709030104375e-02 0.0000000000000000e+00  -1.6584080418717735e-02 -1.1511326746684472e-02 0.0000000000000000e+00  -1.6459983357470669e-02 -1.1817887260388829e-02 0.0000000000000000e+00  -1.4405113082636568e-02 -1.0782487734528359e-02 0.0000000000000000e+00  -1.9555735109243598e-02 -1.5190793635290882e-02 0.0000000000000000e+00  -1.4106744299776779e-02 -1.1380132209319988e-02 0.0000000000000000e+00  -1.4267872073333011e-02 -1.2065907927013604e-02 0.0000000000000000e+00  -1.4029849787391260e-02 -1.2326893429461538e-02 0.0000000000000000e+00  -1.3002247147940486e-02 -1.1873072854576911e-02 0.0000000000000000e+00  -1.7749959397602263e-02 -1.6815955590696617e-02 0.0000000000000000e+00  -1.0817357371335712e-02 -1.0644489685300474e-02 0.0000000000000000e+00  -1.6488908999527849e-02 -1.6882167901411508e-02 0.0000000000000000e+00  -1.0788885855656702e-02 -1.1614622263566445e-02 0.0000000000000000e+00  -1.0974374806012682e-02 -1.2444125928995957e-02 0.0000000000000000e+00  -1.4768585548991093e-02 -1.7480724932770537e-02 0.0000000000000000e+00  -1.0453430794467086e-02 -1.3029626624289166e-02 0.0000000000000000e+00  -1.0435705430632856e-02 -1.3708640778306269e-02 0.0000000000000000e+00  -1.0194065021907624e-02 -1.3996945414391853e-02 0.0000000000000000e+00  -9.9214316021617923e-03 -1.4326567718359415e-02 0.0000000000000000e+00  -9.3064136693258130e-03 -1.4284596289016726e-02 0.0000000000000000e+00  -8.9826120199332539e-03 -1.4597918127018059e-02 0.0000000000000000e+00  -8.8484211748773682e-03 -1.5227088177931532e-02 0.0000000000000000e+00  -7.3691632970897831e-03 -1.3569836187921168e-02 0.0000000000000000e+00  -9.7496575665696646e-03 -1.9172727711215823e-02 0.0000000000000000e+00  -6.1183408269910606e-03 -1.2873891549856086e-02 0.0000000000000000e+00  -6.7794438451933246e-03 -1.5405383493233928e-02 0.0000000000000000e+00  -6.4664530737390648e-03 -1.5819711834404438e-02 0.0000000000000000e+00  -5.2717735062574244e-03 -1.4064266980210759e-02 0.0000000000000000e+00  -6.8286158615970295e-03 -1.9849528405853922e-02 0.0000000000000000e+00  -4.0173078178573464e-03 -1.2785835528233692e-02 0.0000000000000000e+00  -5.6443638202593625e-03 -1.9991366619788457e-02 0.0000000000000000e+00  -3.3566870365923187e-03 -1.3447438034269460e-02 0.0000000000000000e+00  -3.6852342002150051e-03 -1.6957696034647397e-02 0.0000000000000000e+00  -2.8446873831572185e-03 -1.5374283276381497e-02 0.0000000000000000e+00  -2.0966439998592362e-03 -1.3648588923123064e-02 0.0000000000000000e+00  -2.5232489070794689e-03 -2.0569393994831695e-02 0.0000000000000000e+00  -1.2821893347681422e-03 -1.3975682692724378e-02 0.0000000000000000e+00  -9.2606425235892238e-04 -1.5444688166817990e-02 0.0000000000000000e+00  -4.9753414105716204e-04 -1.6191960154829623e-02 0.0000000000000000e+00  -1.1610046685855259e-05 -1.6455497878097768e-02 0.0000000000000000e+00  4.7161600333447338e-04 -1.6410917947323002e-02 0.0000000000000000e+00  7.8542930539456850e-04 -1.3378864401727343e-02 0.0000000000000000e+00  1.7866896491482136e-03 -2.0090887978323122e-02 0.0000000000000000e+00  1.5940664396732549e-03 -1.3568704956777025e-02 0.0000000000000000e+00  2.4561808509945804e-03 -1.6055959530719061e-02 0.0000000000000000e+00  2.9685807268812051e-03 -1.6137224417528472e-02 0.0000000000000000e+00  3.0596851186296546e-03 -1.4194933652426267e-02 0.0000000000000000e+00  4.8942071912361305e-03 -1.9836625890625764e-02 0.0000000000000000e+00  3.6527949360105633e-03 -1.3173916024946518e-02 0.0000000000000000e+00  4.8670908480541245e-03 -1.5627794587547643e-02 0.0000000000000000e+00  5.5074601276184545e-03 -1.6000153870194777e-02 0.0000000000000000e+00  5.2868796807826225e-03 -1.4045373947303605e-02 0.0000000000000000e+00  7.9905617988670855e-03 -1.9611265092576786e-02 0.0000000000000000e+00  5.4835238118588038e-03 -1.2518026097694826e-02 0.0000000000000000e+00  9.2093304219947134e-03 -1.9369463582114600e-02 0.0000000000000000e+00  6.5596097959270058e-03 -1.2980911465049354e-02 0.0000000000000000e+00  8.6118313549258824e-03 -1.5910584415678861e-02 0.0000000000000000e+00  8.3202620236169852e-03 -1.4461396682437998e-02 0.0000000000000000e+00  7.7416776877203847e-03 -1.2715281008437057e-02 0.0000000000000000e+00  1.2273431106370112e-02 -1.8955390430514408e-02 0.0000000000000000e+00  8.5101584087471042e-03 -1.2558848868805896e-02 0.0000000000000000e+00  1.0308096832367516e-02 -1.4382855815867592e-02 0.0000000000000000e+00  1.1139713977047669e-02 -1.4693523010144142e-02 0.0000000000000000e+00  1.1620698797689889e-02 -1.4502733541752817e-02 0.0000000000000000e+00  1.1586639206288900e-02 -1.3897050715898120e-02 0.0000000000000000e+00  1.0815853092134228e-02 -1.2385968514820319e-02 0.0000000000000000e+00  1.6436960769477153e-02 -1.7895796754586704e-02 0.0000000000000000e+00  1.1793734154851920e-02 -1.2380168352710842e-02 0.0000000000000000e+00  1.3235541712732689e-02 -1.3235849806732760e-02 0.0000000000000000e+00  1.4389987832627507e-02 -1.3720743207062104e-02 0.0000000000000000e+00  1.2639350873841434e-02 -1.1581763954906756e-02 0.0000000000000000e+00  1.8404732248627480e-02 -1.6159954825865446e-02 0.0000000000000000e+00  1.2673382352154689e-02 -1.0745058532089798e-02 0.0000000000000000e+00  1.9715458447012661e-02 -1.5985336937249531e-02 0.0000000000000000e+00  1.4083902780822714e-02 -1.1036588318865219e-02 0.0000000000000000e+00  1.5028865927062486e-02 -1.1314703703502182e-02 0.0000000000000000e+00  1.5393014473838411e-02 -1.1163495754811223e-02 0.0000000000000000e+00  1.7842645572124807e-02 -1.2389635543047697e-02 0.0000000000000000e+00  1.6730577181500832e-02 -1.1198618390306690e-02 0.0000000000000000e+00  1.7226583941619002e-02 -1.1098686512596417e-02 0.0000000000000000e+00  1.8263443047476506e-02 -1.1268022275816811e-02 0.0000000000000000e+00  1.7693451203861232e-02 -1.0561317450280180e-02 0.0000000000000000e+00  1.7968169527213890e-02 -1.0312275938849804e-02 0.0000000000000000e+00  1.8871585673269933e-02 -1.0376794182763804e-02 0.0000000000000000e+00  1.7136703696884543e-02 -9.0808621653724435e-03 0.0000000000000000e+00  2.3965345266802607e-02 -1.2263607083491401e-02 0.0000000000000000e+00  1.7978747013093072e-02 -8.8839023344760761e-03 0.0000000000000000e+00  1.9150704090166039e-02 -9.0821478913160301e-03 0.0000000000000000e+00  1.9553234396648998e-02 -8.9059290148239979e-03 0.0000000000000000e+00  2.1133003415738545e-02 -9.2071948379777013e-03 0.0000000000000000e+00  2.0674831667588926e-02 -8.6936297655998522e-03 0.0000000000000000e+00  1.8008831927990569e-02 -7.3190936675471751e-03 0.0000000000000000e+00  2.6676579973758968e-02 -1.0306704917436122e-02 0.0000000000000000e+00  1.8019670801669722e-02 -6.7791312025627815e-03 0.0000000000000000e+00  2.1460423278485193e-02 -7.6983074267436072e-03 0.0000000000000000e+00  2.2141981458980164e-02 -7.5498074577517917e-03 0.0000000000000000e+00  2.0332370027518032e-02 -6.6254252892548040e-03 0.0000000000000000e+00  2.7541030662827495e-02 -8.5389204726630703e-03 0.0000000000000000e+00  2.0582521326993671e-02 -6.1020473256775008e-03 0.0000000000000000e+00  2.0764731130497878e-02 -5.8072147019240317e-03 0.0000000000000000e+00  2.1705419451186966e-02 -5.7627820281811633e-03 0.0000000000000000e+00  2.3810461961145089e-02 -5.9703219475608083e-03 0.0000000000000000e+00  2.2205789361146491e-02 -5.3083456526753841e-03 0.0000000000000000e+00  2.2972596648354937e-02 -5.1852534524288226e-03 0.0000000000000000e+00  2.4071076950209401e-02 -5.0775804273472010e-03 0.0000000000000000e+00  2.2999007523491950e-02 -4.5566057422879690e-03 0.0000000000000000e+00  2.0835700255515049e-02 -3.8420483173774705e-03 0.0000000000000000e+00  3.0524452584043949e-02 -5.1854223211280958e-03 0.0000000000000000e+00  1.9991774663643085e-02 -3.1452781948924451e-03 0.0000000000000000e+00  2.9968458477585648e-02 -4.3085571108789685e-03 0.0000000000000000e+00  2.1667042987567092e-02 -2.8257921107573479e-03 0.0000000000000000e+00  2.1216660850886908e-02 -2.4845635666634319e-03 0.0000000000000000e+00  2.9746074497033495e-02 -3.1541566289032584e-03 0.0000000000000000e+00  2.1597870520661186e-02 -2.0309058298676381e-03 0.0000000000000000e+00  2.2681200802396370e-02 -1.8758450207777232e-03 0.0000000000000000e+00  2.3561487644849062e-02 -1.6725048686056332e-03 0.0000000000000000e+00  2.4167560980610667e-02 -1.3938132930870102e-03 0.0000000000000000e+00  2.3717694879631913e-02 -1.0887842568175947e-03 0.0000000000000000e+00  2.3618199744930686e-02 -7.9259263786361203e-04 0.0000000000000000e+00  2.4345757597109777e-02 -5.0775893160403792e-04 0.0000000000000000e+00  2.1211360959173628e-02 -1.9241303270812229e-04 0.0000000000000000e+00  3.0198224586741901e-02 1.0448990596695174e-04 0.0000000000000000e+00  1.8109461501669779e-02 2.6360857103872057e-04 0.0000000000000000e+00  3.0281241872304441e-02 8.5795385312666052e-04 0.0000000000000000e+00  2.0531715004540305e-02 8.1164911121437843e-04 0.0000000000000000e+00  2.3952228732754245e-02 1.2613362070107489e-03 0.0000000000000000e+00  2.3633236455892069e-02 1.5460128290578524e-03 0.0000000000000000e+00  2.2002352132174892e-02 1.6903597688283339e-03 0.0000000000000000e+00  2.4218411241909852e-02 2.1303236229975858e-03 0.0000000000000000e+00  2.1897472457772214e-02 2.1716522762940528e-03 0.0000000000000000e+00  2.0407844404236809e-02 2.2319789351717928e-03 0.0000000000000000e+00  2.9502689660696756e-02 3.4905955823339493e-03 0.0000000000000000e+00  2.1957052652054113e-02 2.8541578189615791e-03 0.0000000000000000e+00  2.1656972911439858e-02 3.0690652294886908e-03 0.0000000000000000e+00  2.2389352764111692e-02 3.4188589166912905e-03 0.0000000000000000e+00  2.3438164502073529e-02 3.8405494683350252e-03 0.0000000000000000e+00  2.1347646317079375e-02 3.7459812029782243e-03 0.0000000000000000e+00  2.1186378635830606e-02 3.9657463730082302e-03 0.0000000000000000e+00  2.1128232045500343e-02 4.1902720736427777e-03 0.0000000000000000e+00  2.1518660239946207e-02 4.5188811975673919e-03 0.0000000000000000e+00  2.2350580452973050e-02 4.9230493918049709e-03 0.0000000000000000e+00  2.2510627771935653e-02 5.2454189683278927e-03 0.0000000000000000e+00  1.9430436321411265e-02 4.7956397021274057e-03 0.0000000000000000e+00  2.72897590969636