<?xml version="1.0"?>
<VTKFile type="UnstructuredGrid"  version="0.1"  >
<UnstructuredGrid>
<Piece  NumberOfPoints="4274" NumberOfCells="6764">
<Points>
<DataArray  type="Float64"  NumberOfComponents="3"  format="ascii">0 0.01 0  10 0.01 0  0 1.018213984155887 0  10 1.018213984155887 0  0.007129524987038337 0.009997491741717768 0  0.01258064459049757 0.00999219056738478 0  0.01872173241756402 0.009982708334120727 0  0.02429919625640796 0.009970876572043954 0  0.03017238705920286 0.009955108531615313 0  0.03612352734296466 0.0099356743715591 0  0.04164979236492252 0.009914517792428084 0  0.04780928449023854 0.009887415768096998 0  0.05327287671237849 0.009860276931383746 0  0.0593436395885565 0.009826715421083503 0  0.06505608699933001 0.009791870631895848 0  0.07077243060783153 0.009753845329312128 0  0.07684085351634186 0.009710036052663748 0  0.08230528612367993 0.009667566921662384 0  0.08846525752759338 0.009616276826848907 0  0.09398926586603956 0.0095672187064786 0  0.09994377871281757 0.009511110804477986 0  0.10581288515308 0.009452550633355501 0  0.1113930001121819 0.009393893683773193 0  0.1175326299024069 0.009326020378011352 0  0.122983161250664 0.009262856809916281 0  0.1290978349347763 0.009188765415777931 0  0.1347300222736412 0.00911751981665075 0  0.1405327472005438 0.009041131768776852 0  0.1465421455697866 0.008958856277281909 0  0.1520341809431761 0.008880870879718691 0  0.1581991754706344 0.00879018143976357 0  0.1636834803794234 0.008706732874359017 0  0.1697073563005918 0.008612096527554045 0  0.1754901396361989 0.008518345936558386 0  0.1811391035120075 0.008424050210098115 0  0.1872444279222087 0.00831915423323064 0  0.1926961446341008 0.008222899998379215 0  0.198841090009393 0.008111516418624823 0  0.2044064770158165 0.008008028244452866 0  0.2102948627703611 0.007895869216798803 0  0.2162299794791283 0.007780085801116003 0  0.2217647046821167 0.007669675498109103 0  0.2279204403470532 0.007544154739747676 0  0.2333791472114919 0.007430485124751003 0  0.2394590817234977 0.0073013084386626 0  0.245152498789355 0.007177928079207972 0  0.2508861115607116 0.007051356111670669 0  0.2569419868439766 0.006915186417023598 0  0.2624099649457279 0.006790084113692359 0  0.2685711825796066 0.006646722567663751 0  0.274083748205357 0.006516341894728842 0  0.2800541704182985 0.00637292855786236 0  0.2859022845836161 0.006230279166502627 0  0.291495955429921 0.006091868246150131 0  0.2976275706217687 0.005937986548763313 0  0.3030757324287757 0.005799406374294222 0  0.3091980118239236 0.005641654227187252 0  0.3148109405089491 0.005495191514879527 0  0.3206341933715942 0.005341435282378838 0  0.3266248575896781 0.005181393525330103 0  0.3321252080346692 0.005032833254881577 0  0.3382880718234609 0.004864596209960478 0  0.3437628463580178 0.004713611578807419 0  0.3498021006600692 0.004545443593512952 0  0.3555594631656461 0.004383601001460968 0  0.3612291099056053 0.004222822711549606 0  0.3673210805066339 0.004048576418709386 0  0.3727746135437823 0.003891330909934085 0  0.3789246700786391 0.003712634483246944 0  0.3844721023230384 0.00355025746928806 0  0.3903845048135511 0.003376011435332509 0  0.3962935688476314 0.003200699755406988 0  0.4018430601204535 0.00303505085978487 0  0.4079921977692303 0.002850427660455144 0  0.4134449905916002 0.002685819499171436 0  0.4195385366679084 0.002500937932218923 0  0.425204482428441 0.002328206591247292 0  0.4309651825948974 0.00215183074136113 0  0.4370014133195289 0.001966263547608745 0  0.4424769325836848 0.00179732019881714 0  0.4486395183564056 0.001606544730410899 0  0.4541373275735043 0.001435838569361521 0  0.4601308451156257 0.001249254088784412 0  0.4659488863550298 0.001067707976620331 0  0.471564807260988 0.0008921302908496037 0  0.4776843759254726 0.0007004920228137959 0  0.4831317484445766 0.0005296836585198918 0  0.4892643513384632 0.0003372062279158936 0  0.4948528283485032 0.000161696161435303 0  0.5007056813361916 -2.216943068070812e-05 0  0.5066699093509902 -0.000209526046556915 0  0.5121845298566023 -0.0003826949545447442 0  0.5183439831944545 -0.0005759742926309219 0  0.5238088617282698 -0.0007472800272428554 0  0.5298681543527348 -0.0009369594486414562 0  0.5355929349139432 -0.001115856450691032 0  0.5412927239341832 -0.001293613669039852 0  0.5473668732672543 -0.001482588207084091 0  0.5528259073001393 -0.001651967505962102 0  0.5589819336317072 -0.001842386787779294 0  0.5645100189486582 -0.002012797049529044 0  0.5704524332663232 -0.002195301346534757 0  0.5763298911552834 -0.002375058665203144 0  0.5819006708717119 -0.002544689651648297 0  0.5880413281562127 -0.002730768313747055 0  0.5934904284812221 -0.002895042191696308 0  0.5995995320960693 -0.003078202338538874 0  0.605236779888003 -0.003246210954182579 0  0.6110299855290301 -0.003417806240976177 0  0.6170432999212266 -0.00359472323302265 0  0.6225307972792151 -0.00375505261922207 0  0.6286944373476531 -0.003933803567825084 0  0.6341794289295242 -0.004091634709336539 0  0.6401977648984302 -0.004263413669385436 0  0.6459846030577213 -0.004427148756161272 0  0.6516277670629291 -0.004585409549508515 0  0.6577342305863492 -0.004755038487876419 0  0.6631843111407589 -0.004904958327357115 0  0.6693271588517591 -0.005072208653571043 0  0.6748942591145469 -0.005222152905474348 0  0.6807781354428797 -0.005378892074409919 0  0.6867158102497221 -0.005535201343768038 0  0.6922478556369909 -0.005679100421160843 0  0.6984036264198542 -0.005837205328254034 0  0.7038624132928571 -0.005975584427524931 0  0.7099402809449575 -0.006127588021236129 0  0.7156361945945205 -0.006268012368771779 0  0.7213667017809595 -0.006407263887957157 0  0.7274241898103784 -0.006552202568912044 0  0.7328913375361901 -0.006680980644346233 0  0.7390522654079078 -0.006823736587757829 0  0.7445663161830813 -0.006949337256267011 0  0.7505345306161221 -0.007082931996795786 0  0.7563856967966242 -0.007211490056377221 0  0.7619775509571868 -0.007332073958440476 0  0.7681106054434813 -0.007461725199742056 0  0.7735594228940573 -0.007574589702563127 0  0.7796809699364847 -0.007698739982391196 0  0.7852974086111042 -0.007810142587226769 0  0.7911178568436495 -0.007923025648348906 0  0.797112403703894 -0.008036515862006795 0  0.8026119630288198 -0.008138129173272899 0  0.8087760180262171 -0.008249131188213875 0  0.814253500572072 -0.008345174877796967 0  0.8202905515677629 -0.008448166667805387 0  0.8260544286221699 -0.008543663134562481 0  0.831720415905675 -0.008634807324656511 0  0.8378167080097026 -0.008729817306667463 0  0.8432709709919499 -0.008812108559864256 0  0.8494209576248264 -0.008901791974276371 0  0.8549745826348545 -0.008979924427376591 0  0.8608814329347291 -0.009060026011188804 0  0.8667998142885592 -0.009137155111096256 0  0.8723460990452367 -0.009206568509458774 0  0.8784989383774584 -0.009280301817794542 0  0.8839552890388401 -0.009342788637451834 0  0.8900456692707091 -0.009409293585850673 0  0.8957233874467343 -0.009468190513990782 0  0.9014754209053449 -0.009524786393944277 0  0.9075213579987256 -0.009580921173179099 0  0.9129954731058688 -0.009628765913494807 0  0.9191593188847452 -0.009679229788646495 0  0.9246655330424429 -0.009721240864333262 0  0.9306503084472221 -0.009763603884533442 0  0.9364847200361547 -0.009801580348484516 0  0.9420914259676206 -0.009834972127394636 0  0.948219177636862 -0.009867976960504428 0  0.9536688877131657 -0.009894257783109666 0  0.9597979104438458 -0.009920349306153329 0  0.9654020314719589 -0.009940987600901847 0  0.9712398170272581 -0.009959209624459757 0  0.9772219132298864 -0.009974407121723252 0  0.9827297975109929 -0.009985285083248089 0  0.9888934840407251 -0.009993913310034224 0  0.9943667421923366 -0.009998434045983932 0  1.000414962337846 -0.009999991502249178 0  1.00616395254491 -0.009998125110441144 0  1.011844857354635 -0.009993077234903055 0  1.017933801412069 -0.009984132829796667 0  1.023390946643176 -0.00997301205183276 0  1.029544679732296 -0.009956955598792184 0  1.035089558108845 -0.009939300412459717 0  1.041010936359372 -0.009917116481575694 0  1.04691554237944 -0.00989157814857561 0  1.052471258615448 -0.009864440751261633 0  1.05862104751389 -0.009830897850136421 0  1.064075481579663 -0.009798076706746352 0  1.070173358231585 -0.009757978136698224 0  1.075837941143087 -0.00971752009646258 0  1.081604377355612 -0.009673173917302162 0  1.087640686528322 -0.009623351755525641 0  1.093119387704205 -0.009575135453199036 0  1.099284093826516 -0.009517491101966447 0  1.104783734376909 -0.009463052176492596 0  1.110779897618174 -0.009400480030121557 0  1.116599992234411 -0.00933655469875222 0  1.122217899723542 -0.009271889359757672 0  1.128339818747432 -0.009198135031144493 0  1.133789446190431 -0.00912961705214143 0  1.139923317158062 -0.009049295973540348 0  1.145515844317945 -0.008973134373133167 0  1.151367773813766 -0.008890475161473248 0  1.157336906671575 -0.008803064948780913 0  1.16285160438384 -0.008719557366803981 0  1.16901331600552 -0.008623157866544266 0  1.174481522907442 -0.00853490108265173 0  1.180539122189597 -0.008434191931863186 0  1.186271617394136 -0.008336073959344166 0  1.191966996821913 -0.008235914041393521 0  1.198046448076202 -0.008126091334838595 0  1.203505695906331 -0.008024945109277802 0  1.209661806077474 -0.007908057515838151 0  1.21519584913737 -0.007800455577732041 0  1.221132109188887 -0.00768241304184519 0  1.227019087412133 -0.007562711583992629 0  1.232585135446325 -0.007447155722966398 0  1.238729389023077 -0.007316953404904543 0  1.244180486899644 -0.007199156086382225 0  1.250286093435722 -0.007064709646262071 0  1.255932842016573 -0.006938052500145445 0  1.261716857103797 -0.006806053534187844 0  1.26773845151126 -0.006666245775332091 0  1.273222687278595 -0.006536836953056475 0  1.279386853652711 -0.00638906998029936 0  1.284876650734994 -0.006255450389977176 0  1.290887326898431 -0.00610702037198264 0  1.296685536664392 -0.00596177282270944 0  1.30231949087952 -0.005818744638503708 0  1.308431215520824
[...]
<PointData  Vectors="Traction"> 
<DataArray  type="Float64"  Name="Traction"  NumberOfComponents="3" format="ascii">1.7791560887718167e-05 1.2847420551695157e-02 0.0000000000000000e+00  1.7791560887718167e-05 1.2847420551695157e-02 0.0000000000000000e+00  -1.1355995092907260e-08 -1.0094454348766966e-08 0.0000000000000000e+00  -1.1355995092907260e-08 -1.0094454348766966e-08 0.0000000000000000e+00  -6.5366919573717631e-04 2.1633103547836516e-02 0.0000000000000000e+00  -1.0022245976244119e-03 1.9660734848831241e-02 0.0000000000000000e+00  -1.3617679753532659e-03 1.8223507562294770e-02 0.0000000000000000e+00  -1.9273676381555572e-03 2.0121614185049159e-02 0.0000000000000000e+00  -2.0677593855774751e-03 1.7313112385790908e-02 0.0000000000000000e+00  -3.3472293341569826e-03 2.3566278269004107e-02 0.0000000000000000e+00  -2.5095825247446329e-03 1.5394214640632382e-02 0.0000000000000000e+00  -3.4036903573645802e-03 1.8044852253691766e-02 0.0000000000000000e+00  -4.0710610937839918e-03 1.9195092943896156e-02 0.0000000000000000e+00  -3.7929229433151146e-03 1.5974426449809457e-02 0.0000000000000000e+00  -5.9579922537336301e-03 2.2975297076896932e-02 0.0000000000000000e+00  -4.2139152565340322e-03 1.4959729845681115e-02 0.0000000000000000e+00  -7.2695798349979371e-03 2.3483186745683171e-02 0.0000000000000000e+00  -5.0597785065260867e-03 1.5310825267333992e-02 0.0000000000000000e+00  -6.2608895242537771e-03 1.7545899037673517e-02 0.0000000000000000e+00  -7.4793348763611215e-03 1.9449149547571553e-02 0.0000000000000000e+00  -6.9468775760182372e-03 1.6909546229382177e-02 0.0000000000000000e+00  -7.5270463988362938e-03 1.7195191698364122e-02 0.0000000000000000e+00  -8.5668058781227466e-03 1.8463183548840290e-02 0.0000000000000000e+00  -8.9953744955547799e-03 1.8288404635916571e-02 0.0000000000000000e+00  -8.7328317327931768e-03 1.6982121154682169e-02 0.0000000000000000e+00  -9.1093633055516886e-03 1.6850742635423153e-02 0.0000000000000000e+00  -9.6059590073573169e-03 1.6927433478583540e-02 0.0000000000000000e+00  -9.4507415265146100e-03 1.5888961985945721e-02 0.0000000000000000e+00  -1.3575431579468042e-02 2.1667328397610573e-02 0.0000000000000000e+00  -1.0519333458677175e-02 1.6244618560288675e-02 0.0000000000000000e+00  -1.1100870212394620e-02 1.6427090827198749e-02 0.0000000000000000e+00  -1.0370326837643841e-02 1.4766053565465854e-02 0.0000000000000000e+00  -1.1158502933447620e-02 1.5113568705653320e-02 0.0000000000000000e+00  -1.6141309207014749e-02 2.0840363156155832e-02 0.0000000000000000e+00  -1.1734783649354341e-02 1.4699629814258583e-02 0.0000000000000000e+00  -1.2072106612380278e-02 1.4472616062123382e-02 0.0000000000000000e+00  -1.7931404296756763e-02 2.0607665690606781e-02 0.0000000000000000e+00  -1.1534840309401167e-02 1.2833187493534716e-02 0.0000000000000000e+00  -1.8528172830750395e-02 1.9860805138372781e-02 0.0000000000000000e+00  -1.1425728158661823e-02 1.1805747071333505e-02 0.0000000000000000e+00  -1.9298833053827149e-02 1.9198459567449522e-02 0.0000000000000000e+00  -1.3699368083251399e-02 1.3171416476978117e-02 0.0000000000000000e+00  -1.4312321747598418e-02 1.3237960177426400e-02 0.0000000000000000e+00  -2.0601014485270876e-02 1.8350890154271587e-02 0.0000000000000000e+00  -1.2540678009904226e-02 1.0804288972678497e-02 0.0000000000000000e+00  -2.1644754590307447e-02 1.7959803248667902e-02 0.0000000000000000e+00  -1.4596035065478824e-02 1.1722320278937656e-02 0.0000000000000000e+00  -2.3345236349233661e-02 1.8070134258776713e-02 0.0000000000000000e+00  -1.5825564934497008e-02 1.1937470782662456e-02 0.0000000000000000e+00  -1.8150836260177283e-02 1.3180238730609597e-02 0.0000000000000000e+00  -2.0133742654841441e-02 1.4030219306179474e-02 0.0000000000000000e+00  -1.7579141130128002e-02 1.1817277980479379e-02 0.0000000000000000e+00  -2.4082408813178590e-02 1.5568455464032099e-02 0.0000000000000000e+00  -1.6987117168111729e-02 1.0668180965129644e-02 0.0000000000000000e+00  -2.0175471679734613e-02 1.2185884838496646e-02 0.0000000000000000e+00  -1.8366538867584103e-02 1.0696962270223272e-02 0.0000000000000000e+00  -2.6547499554712025e-02 1.4827898686561224e-02 0.0000000000000000e+00  -1.7435456030914877e-02 9.5261224765079595e-03 0.0000000000000000e+00  -1.7902613556822374e-02 9.4238356715288987e-03 0.0000000000000000e+00  -2.7748668479175474e-02 1.3930957148246640e-02 0.0000000000000000e+00  -2.0078000916079621e-02 9.7567870277054294e-03 0.0000000000000000e+00  -1.9114705825486411e-02 8.8893238269719399e-03 0.0000000000000000e+00  -2.8104759046046462e-02 1.2582622894944273e-02 0.0000000000000000e+00  -1.8581075285453504e-02 7.9751666730612097e-03 0.0000000000000000e+00  -2.9696258889871256e-02 1.2166133830633625e-02 0.0000000000000000e+00  -1.9805777969153102e-02 7.8163611870640630e-03 0.0000000000000000e+00  -2.3104068926828487e-02 8.7225269686241058e-03 0.0000000000000000e+00  -2.4811034141789617e-02 8.8985043705830172e-03 0.0000000000000000e+00  -2.2620353272987226e-02 7.7392429376911109e-03 0.0000000000000000e+00  -2.3008947193401172e-02 7.5021437960222873e-03 0.0000000000000000e+00  -2.5470245732825171e-02 7.8796899755084835e-03 0.0000000000000000e+00  -2.3811775357708537e-02 7.0143336085713446e-03 0.0000000000000000e+00  -2.4463108859244586e-02 6.8703830434094261e-03 0.0000000000000000e+00  -2.6033242344346730e-02 6.9056430180896300e-03 0.0000000000000000e+00  -2.4892322230044811e-02 6.2478061756933755e-03 0.0000000000000000e+00  -2.4808435576742775e-02 5.8518331584214989e-03 0.0000000000000000e+00  -2.6089387746896897e-02 5.7349727527417410e-03 0.0000000000000000e+00  -2.2450177779600219e-02 4.6125818690197764e-03 0.0000000000000000e+00  -3.2123150694484959e-02 6.1581506184996042e-03 0.0000000000000000e+00  -2.2181524118208881e-02 3.9677509775133514e-03 0.0000000000000000e+00  -2.6426818884641972e-02 4.3360186535569747e-03 0.0000000000000000e+00  -2.5549574666031992e-02 3.8098898677158578e-03 0.0000000000000000e+00  -2.3058536766665867e-02 3.1268813912402721e-03 0.0000000000000000e+00  -3.2717728321971791e-02 4.0286837102986228e-03 0.0000000000000000e+00  -2.3671079940886550e-02 2.5501869438652675e-03 0.0000000000000000e+00  -2.3630642383321965e-02 2.2000639726318032e-03 0.0000000000000000e+00  -3.3097904120996419e-02 2.6358993102541003e-03 0.0000000000000000e+00  -2.3802742138193594e-02 1.5466722050323095e-03 0.0000000000000000e+00  -2.5253119365256864e-02 1.3004033325980391e-03 0.0000000000000000e+00  -2.6014097376838571e-02 9.7704196153356512e-04 0.0000000000000000e+00  -2.6707850060174169e-02 6.1367859788489512e-04 0.0000000000000000e+00  -2.6169102946275020e-02 2.3517188120017568e-04 0.0000000000000000e+00  -2.6250830723297928e-02 -1.3600796082416673e-04 0.0000000000000000e+00  -2.7196812149428325e-02 -5.1168870706828050e-04 0.0000000000000000e+00  -2.4092644832892023e-02 -7.8465499975459907e-04 0.0000000000000000e+00  -3.3782116227750209e-02 -1.5401066071318128e-03 0.0000000000000000e+00  -2.4206011104320614e-02 -1.4117511719109297e-03 0.0000000000000000e+00  -2.4801002898244520e-02 -1.7757287735069669e-03 0.0000000000000000e+00  -3.4480510238096548e-02 -2.8822334921576073e-03 0.0000000000000000e+00  -2.1899100141807321e-02 -2.1175933102726766e-03 0.0000000000000000e+00  -3.4321198062173083e-02 -3.7296789213515846e-03 0.0000000000000000e+00  -2.4543256731105117e-02 -2.9990527675853337e-03 0.0000000000000000e+00  -2.5730024096247934e-02 -3.4867139626334853e-03 0.0000000000000000e+00  -2.5932715295969813e-02 -3.8317298249113292e-03 0.0000000000000000e+00  -2.6938968661903231e-02 -4.3651396542530229e-03 0.0000000000000000e+00  -2.5224215408218828e-02 -4.4599147792840485e-03 0.0000000000000000e+00  -2.4196323279648196e-02 -4.6679452419316836e-03 0.0000000000000000e+00  -3.4088311042102512e-02 -7.0156943729602211e-03 0.0000000000000000e+00  -2.5439538332792687e-02 -5.6723827175638297e-03 0.0000000000000000e+00  -2.5026816457826857e-02 -6.0252524747918578e-03 0.0000000000000000e+00  -2.5040571410060497e-02 -6.3853845785072482e-03 0.0000000000000000e+00  -2.5426993028811851e-02 -6.8625997642898237e-03 0.0000000000000000e+00  -2.5065924549861295e-02 -7.2269189465134099e-03 0.0000000000000000e+00  -2.5173555279333112e-02 -7.6467556585493330e-03 0.0000000000000000e+00  -2.5786859737385995e-02 -8.2055115594336803e-03 0.0000000000000000e+00  -2.3033746104600076e-02 -7.7389373012810396e-03 0.0000000000000000e+00  -3.1766749937905119e-02 -1.1219931345665771e-02 0.0000000000000000e+00  -2.1157852972375168e-02 -7.8126828726681335e-03 0.0000000000000000e+00  -2.2750146031102685e-02 -8.8130602377068691e-03 0.0000000000000000e+00  -3.1629777961060326e-02 -1.2647129121417602e-02 0.0000000000000000e+00  -2.2146806748059081e-02 -9.2930635068866913e-03 0.0000000000000000e+00  -3.1230714318488343e-02 -1.3565830903302531e-02 0.0000000000000000e+00  -2.2093696943163689e-02 -1.0009200551163593e-02 0.0000000000000000e+00  -2.0388578262554836e-02 -9.6716148893503662e-03 0.0000000000000000e+00  -2.1986510071293638e-02 -1.0791248423869141e-02 0.0000000000000000e+00  -2.3826199934744312e-02 -1.2109309610667078e-02 0.0000000000000000e+00  -2.3080169133427763e-02 -1.2178105973267468e-02 0.0000000000000000e+00  -2.0025050744438583e-02 -1.1012152593654501e-02 0.0000000000000000e+00  -2.7436288400308397e-02 -1.5628646191957123e-02 0.0000000000000000e+00  -2.0008212575488897e-02 -1.1844397413781099e-02 0.0000000000000000e+00  -2.0359257975565582e-02 -1.2564487612568058e-02 0.0000000000000000e+00  -2.0598522850908737e-02 -1.3123480922144118e-02 0.0000000000000000e+00  -1.9434785430706630e-02 -1.2883690154638265e-02 0.0000000000000000e+00  -1.9707276944777172e-02 -1.3603461749825470e-02 0.0000000000000000e+00  -2.1015012331025554e-02 -1.4997909928179910e-02 0.0000000000000000e+00  -2.0353572380261243e-02 -1.5156165251041442e-02 0.0000000000000000e+00  -1.9462927808561861e-02 -1.5086854592403840e-02 0.0000000000000000e+00  -1.8659609273017248e-02 -1.5062551071505718e-02 0.0000000000000000e+00  -1.9401687348164786e-02 -1.6237843750419520e-02 0.0000000000000000e+00  -1.7539875963452689e-02 -1.5327673577989431e-02 0.0000000000000000e+00  -1.6734712197779330e-02 -1.5251548701853650e-02 0.0000000000000000e+00  -1.8692246539930887e-02 -1.7695079106309426e-02 0.0000000000000000e+00  -1.6470096374121151e-02 -1.6300908046728707e-02 0.0000000000000000e+00  -1.6098194357933738e-02 -1.6522171820700416e-02 0.0000000000000000e+00  -1.6770865850865350e-02 -1.7906411006334343e-02 0.0000000000000000e+00  -1.5219340040594838e-02 -1.6914711507177351e-02 0.0000000000000000e+00  -1.4462068164472396e-02 -1.6793923328035431e-02 0.0000000000000000e+00  -1.9420909685163218e-02 -2.3418887698684939e-02 0.0000000000000000e+00  -1.2925531383616837e-02 -1.6264877548298039e-02 0.0000000000000000e+00  -1.3287614246508758e-02 -1.7589954830588620e-02 0.0000000000000000e+00  -1.3864843949852811e-02 -1.9161132878880879e-02 0.0000000000000000e+00  -1.2362161383304530e-02 -1.7972475819245885e-02 0.0000000000000000e+00  -1.1642808095052186e-02 -1.7788449119256287e-02 0.0000000000000000e+00  -1.2738345208062244e-02 -2.0461852439589197e-02 0.0000000000000000e+00  -1.1004554913121365e-02 -1.8755280847309683e-02 0.0000000000000000e+00  -1.0564919279838436e-02 -1.8939945824761863e-02 0.0000000000000000e+00  -1.0725633864496105e-02 -2.0382642501461611e-02 0.0000000000000000e+00  -9.5111186249429054e-03 -1.9159322520381057e-02 0.0000000000000000e+00  -8.6669273043834486e-03 -1.8585737251360583e-02 0.0000000000000000e+00  -1.1353243359545455e-02 -2.5825469959006662e-02 0.0000000000000000e+00  -7.2931490799151531e-03 -1.7677013578051685e-02 0.0000000000000000e+00  -7.3710888718527320e-03 -1.9365587862460971e-02 0.0000000000000000e+00  -7.4332013526226728e-03 -2.1036186870168963e-02 0.0000000000000000e+00  -6.3262563155658752e-03 -1.9564744566845323e-02 0.0000000000000000e+00  -5.6800582524009274e-03 -1.9208171307394811e-02 0.0000000000000000e+00  -5.9002692163639958e-03 -2.1993721419268440e-02 0.0000000000000000e+00  -4.7732078335066203e-03 -1.9973225405546968e-02 0.0000000000000000e+00  -4.3253872682416710e-03 -2.0143341241222478e-02 0.0000000000000000e+00  -4.0285097318482014e-03 -2.1561423741902772e-02 0.0000000000000000e+00  -3.2299946494305969e-03 -2.0038067585917117e-02 0.0000000000000000e+00  -2.6263405641254720e-03 -1.9678313783510964e-02 0.0000000000000000e+00  -2.9492705885976254e-03 -2.7243823978915050e-02 0.0000000000000000e+00  -1.5849071909072980e-03 -1.8815658793557677e-02 0.0000000000000000e+00  -1.0943305137150962e-03 -2.0056130723498905e-02 0.0000000000000000e+00  -6.3721357502348258e-04 -2.1670776354283803e-02 0.0000000000000000e+00  -3.4789243704606010e-05 -2.0265859982185216e-02 0.0000000000000000e+00  4.8555705273674668e-04 -1.9700969494922227e-02 0.0000000000000000e+00  1.1722953798447783e-03 -2.2583839747939743e-02 0.0000000000000000e+00  1.6283586442798069e-03 -2.0348063928150664e-02 0.0000000000000000e+00  2.1315884219774458e-03 -2.0427232970832661e-02 0.0000000000000000e+00  2.8989599154874437e-03 -2.1777990188676075e-02 0.0000000000000000e+00  3.2032596883029641e-03 -2.0170080673906500e-02 0.0000000000000000e+00  3.5837751244625240e-03 -1.9192017634128446e-02 0.0000000000000000e+00  5.7440462259277800e-03 -2.6836225228382721e-02 0.0000000000000000e+00  4.3784268599308517e-03 -1.8386054128906724e-02 0.0000000000000000e+00  5.2977805137865387e-03 -1.9766597235611270e-02 0.0000000000000000e+00  6.2835304838692865e-03 -2.1297950478489099e-02 0.0000000000000000e+00  6.3931907938708735e-03 -1.9728013397157285e-02 0.0000000000000000e+00  6.7538894944525092e-03 -1.9185339043718417e-02 0.0000000000000000e+00  8.3938678248855932e-03 -2.1970593386184602e-02 0.0000000000000000e+00  7.4015858752557824e-03 -1.7921503918376394e-02 0.0000000000000000e+00  1.0926055752765883e-02 -2.4861360651987349e-02 0.0000000000000000e+00  8.3692577555497961e-03 -1.7819861436811010e-02 0.0000000000000000e+00  9.5037404155860847e-03 -1.9055733375897919e-02 0.0000000000000000e+00  1.0140438419426627e-02 -1.9118872291918772e-02 0.0000000000000000e+00  1.1353709393965287e-02 -2.0154139690712874e-02 0.0000000000000000e+00  1.0412413611167548e-02 -1.7538933636335501e-02 0.0000000000000000e+00  1.4770052631994955e-02 -2.3634321087745182e-02 0.0000000000000000e+00  1.1299107051444169e-02 -1.7272405804282208e-02 0.0000000000000000e+00  1.2135292112445474e-02 -1.7651793454724066e-02 0.0000000000000000e+00  1.2781459914417332e-02 -1.7830475047340425e-02 0.0000000000000000e+00  1.3695482997764864e-02 -1.8157925179154207e-02 0.0000000000000000e+00  1.3798420533466412e-02 -1.7520160766521641e-02 0.0000000000000000e+00  1.3746443684468264e-02 -1.6807904575637120e-02 0.0000000000000000e+00  1.4900411164572327e-02 -1.7230933463356850e-02 0.0000000000000000e+00  1.5114728793059206e-02 -1.6888437316130291e-02 0.0000000000000000e+00  1.5736518697698414e-02 -1.6884257776033949e-02 0.0000000000000000e+00  1.6766765435250630e-02 -1.7153545144911592e-02 0.0000000000000000e+00  1.5419109854629163e-02 -1.5177700878657416e-02 0.0000000000000000e+00  2.1608806520200093e-02 -2.0434781762748804e-02 0.0000000000000000e+00  1.6321128562656224e-02 -1.4849530787836426e-02 0.0000000000000000e+00  1.7265692167780879e-02 -1.5111902841499190e-02 0.0000000000000000e+00  1.7635757589569576e-02 -1.4898655748153111e-02 0.0000000000000000e+00  1.8694665554478043e-02 -1.5073725938341371e-02 0.0000000000000000e+00  1.8522646996071184e-02 -1.4423176941853359e-02 0.0000000000000000e+00  1.8376164688751629e-02 -1.3849908667172344e-02 0.0000000000000000e+00  1.9766472422868785e-02 -1.4235671868270190e-02 0.0000000000000000e+00  2.0384901469435900e-02 -1.4256197706708872e-02 0.0000000000000000e+00  2.0065462881387178e-02 -1.3468436348027626e-02 0.0000000000000000e+00  2.1873611967023976e-02 -1.4084419862908808e-02 0.0000000000000000e+00  2.0108170345039724e-02 -1.2506550645328553e-02 0.0000000000000000e+00  2.7217337967091103e-02 -1.6370160243388811e-02 0.0000000000000000e+00  2.0521610680448617e-02 -1.1938452051284484e-02 0.0000000000000000e+00  2.1521476982498722e-02 -1.2037138243312703e-02 0.0000000000000000e+00  2.2074507524355216e-02 -1.1906460631665030e-02 0.0000000000000000e+00  2.3816833057165740e-02 -1.2318579105046844e-02 0.0000000000000000e+00  2.3153036721206839e-02 -1.1590967718381287e-02 0.0000000000000000e+00  2.0657431003781798e-02 -9.9749067765574628e-03 0.0000000000000000e+00  3.0635872199827330e-02 -1.4115487673332379e-02 0.0000000000000000e+00  2.0727780163519519e-02 -9.2321226572966552e-03 0.0000000000000000e+00  2.3518218897478165e-02 -9.9942376813517385e-03 0.0000000000000000e+00  2.4955429906866760e-02 -1.0100216079309270e-02 0.0000000000000000e+00  2.2825904111027358e-02 -8.8374590962099729e-03 0.0000000000000000e+00  3.1110928449035253e-02 -1.1510431827491844e-02 0.0000000000000000e+00  2.3260808165753023e-02 -8.1968983026803801e-03 0.0000000000000000e+00  2.3489442170488418e-02 -7.8297599996845716e-03 0.0000000000000000e+00  2.4554300846304646e-02 -7.7603346699819083e-03 0.0000000000000000e+00  2.6911584988055289e-02 -8.0213503001192957e-03 0.0000000000000000e+00  2.5096271181345515e-02 -7.1211249495593577e-03 0.0000000000000000e+00  2.5937840135692777e-02 -6.9956197175825808e-03 0.0000000000000000e+00  2.7179696940969396e-02 -6.8815031081829667e-03 0.0000000000000000e+00  2.5966366723614034e-02 -6.2009072407996392e-03 0.0000000000000000e+00  2.3528617445266714e-02 -5.2425502550682151e-03 0.0000000000000000e+00  3.4545901574432138e-02 -7.1346361428366589e-03 0.0000000000000000e+00  2.2540361701074429e-02 -4.3304032299658441e-03 0.0000000000000000e+00  3.3835167656236752e-02 -5.9897641210971990e-03 0.0000000000000000e+00  2.4398611336101821e-02 -3.9672465345307615e-03 0.0000000000000000e+00  2.3857881214124237e-02 -3.5321266153017779e-03 0.0000000000000000e+00  3.3620427372987927e-02 -4.5554312029966832e-03 0.0000000000000000e+00  2.4302036869109572e-02 -2.9768419498759310e-03 0.0000000000000000e+00  2.5804904481261780e-02 -2.8203234213870147e-03 0.0000000000000000e+00  2.6680069254687255e-02 -2.5390320256492632e-03 0.0000000000000000e+00  2.7394216907952136e-02 -2.1816460039320428e-03 0.0000000000000000e+00  2.6905739124914244e-02 -1.7675492042733725e-03 0.0000000000000000e+00  2.6806492918646823e-02 -1.3736907052614986e-03 0.0000000000000000e+00  2.7626444290270741e-02 -1.0062653851607725e-03 0.0000000000000000e+00  2.4072903674855737e-02 -5.4599186421943789e-04 0.0000000000000000e+00  3.4299553363388705e-02 -2.9118274235985508e-04 0.0000000000000000e+00  2.0565709557487061e-02 9.8202237594923288e-05 0.0000000000000000e+00  3.4414463600198439e-02 6.8483694067345024e-04 0.0000000000000000e+00  2.3337455054687463e-02 7.8126657106087922e-04 0.0000000000000000e+00  2.7226077550171691e-02 1.3138458300313740e-03 0.0000000000000000e+00  2.6880654252960892e-02 1.6910859524713851e-03 0.0000000000000000e+00  2.5040193939651297e-02 1.9083484229031392e-03 0.0000000000000000e+00  2.7557114106015378e-02 2.4657808631728122e-03 0.0000000000000000e+00  2.4904816074857145e-02 2.5622771449373130e-03 0.0000000000000000e+00  2.3316197594791171e-02 2.6831115249919741e-03 0.0000000000000000e+00  3.3641252979376202e-02 4.2360191180279743e-03 0.0000000000000000e+00  2.5062931477242006e-02 3.4879851384625239e-03 0.0000000000000000e+00  2.4743331767616686e-02 3.7789369527592778e-03 0.0000000000000000e+00  2.5679179168516079e-02 4.2314125321102312e-03 0.0000000000000000e+00  2.6954521503150145e-02 4.7738785828029704e-03 0.0000000000000000e+00  2.4966172136570212e-02 4.7488429715952908e-03 0.0000000000000000e+00  2.4429736271819373e-02 4.9810514102611603e-03 0.0000000000000000e+00  2.4444638104134678e-02 5.3231293757237865e-03 0.0000000000000000e+00  2.1988387930970112e-02 5.1349660588490996e-03 0.0000000000000000e+00  3.2240889465071129e-02 7.9294364348043347e-03 0.0000000000000000e+00  2.2263399265130740e-02 5.8329632263634410e-03 0.0000000000000000e+00  2.1482271252179594e-02 5.9488895285167119e-03 0.0000000000000000e+00  3.1849939959