<?xml version="1.0"?>
<VTKFile type="UnstructuredGrid"  version="0.1"  >
<UnstructuredGrid>
<Piece  NumberOfPoints="4281" NumberOfCells="6778">
<Points>
<DataArray  type="Float64"  NumberOfComponents="3"  format="ascii">0 0.01 0  10 0.01 0  0 1.023967135573201 0  10 1.023967135573201 0  0.007129524987038337 0.009997491741717768 0  0.01258064459049757 0.00999219056738478 0  0.01872173241756402 0.009982708334120727 0  0.02429919625640796 0.009970876572043954 0  0.03017238705920286 0.009955108531615313 0  0.03612352734296466 0.0099356743715591 0  0.04164979236492252 0.009914517792428084 0  0.04780928449023854 0.009887415768096998 0  0.05327287671237849 0.009860276931383746 0  0.0593436395885565 0.009826715421083503 0  0.06505608699933001 0.009791870631895848 0  0.07077243060783153 0.009753845329312128 0  0.07684085351634186 0.009710036052663748 0  0.08230528612367993 0.009667566921662384 0  0.08846525752759338 0.009616276826848907 0  0.09398926586603956 0.0095672187064786 0  0.09994377871281757 0.009511110804477986 0  0.10581288515308 0.009452550633355501 0  0.1113930001121819 0.009393893683773193 0  0.1175326299024069 0.009326020378011352 0  0.122983161250664 0.009262856809916281 0  0.1290978349347763 0.009188765415777931 0  0.1347300222736412 0.00911751981665075 0  0.1405327472005438 0.009041131768776852 0  0.1465421455697866 0.008958856277281909 0  0.1520341809431761 0.008880870879718691 0  0.1581991754706344 0.00879018143976357 0  0.1636834803794234 0.008706732874359017 0  0.1697073563005918 0.008612096527554045 0  0.1754901396361989 0.008518345936558386 0  0.1811391035120075 0.008424050210098115 0  0.1872444279222087 0.00831915423323064 0  0.1926961446341008 0.008222899998379215 0  0.198841090009393 0.008111516418624823 0  0.2044064770158165 0.008008028244452866 0  0.2102948627703611 0.007895869216798803 0  0.2162299794791283 0.007780085801116003 0  0.2217647046821167 0.007669675498109103 0  0.2279204403470532 0.007544154739747676 0  0.2333791472114919 0.007430485124751003 0  0.2394590817234977 0.0073013084386626 0  0.245152498789355 0.007177928079207972 0  0.2508861115607116 0.007051356111670669 0  0.2569419868439766 0.006915186417023598 0  0.2624099649457279 0.006790084113692359 0  0.2685711825796066 0.006646722567663751 0  0.274083748205357 0.006516341894728842 0  0.2800541704182985 0.00637292855786236 0  0.2859022845836161 0.006230279166502627 0  0.291495955429921 0.006091868246150131 0  0.2976275706217687 0.005937986548763313 0  0.3030757324287757 0.005799406374294222 0  0.3091980118239236 0.005641654227187252 0  0.3148109405089491 0.005495191514879527 0  0.3206341933715942 0.005341435282378838 0  0.3266248575896781 0.005181393525330103 0  0.3321252080346692 0.005032833254881577 0  0.3382880718234609 0.004864596209960478 0  0.3437628463580178 0.004713611578807419 0  0.3498021006600692 0.004545443593512952 0  0.3555594631656461 0.004383601001460968 0  0.3612291099056053 0.004222822711549606 0  0.3673210805066339 0.004048576418709386 0  0.3727746135437823 0.003891330909934085 0  0.3789246700786391 0.003712634483246944 0  0.3844721023230384 0.00355025746928806 0  0.3903845048135511 0.003376011435332509 0  0.3962935688476314 0.003200699755406988 0  0.4018430601204535 0.00303505085978487 0  0.4079921977692303 0.002850427660455144 0  0.4134449905916002 0.002685819499171436 0  0.4195385366679084 0.002500937932218923 0  0.425204482428441 0.002328206591247292 0  0.4309651825948974 0.00215183074136113 0  0.4370014133195289 0.001966263547608745 0  0.4424769325836848 0.00179732019881714 0  0.4486395183564056 0.001606544730410899 0  0.4541373275735043 0.001435838569361521 0  0.4601308451156257 0.001249254088784412 0  0.4659488863550298 0.001067707976620331 0  0.471564807260988 0.0008921302908496037 0  0.4776843759254726 0.0007004920228137959 0  0.4831317484445766 0.0005296836585198918 0  0.4892643513384632 0.0003372062279158936 0  0.4948528283485032 0.000161696161435303 0  0.5007056813361916 -2.216943068070812e-05 0  0.5066699093509902 -0.000209526046556915 0  0.5121845298566023 -0.0003826949545447442 0  0.5183439831944545 -0.0005759742926309219 0  0.5238088617282698 -0.0007472800272428554 0  0.5298681543527348 -0.0009369594486414562 0  0.5355929349139432 -0.001115856450691032 0  0.5412927239341832 -0.001293613669039852 0  0.5473668732672543 -0.001482588207084091 0  0.5528259073001393 -0.001651967505962102 0  0.5589819336317072 -0.001842386787779294 0  0.5645100189486582 -0.002012797049529044 0  0.5704524332663232 -0.002195301346534757 0  0.5763298911552834 -0.002375058665203144 0  0.5819006708717119 -0.002544689651648297 0  0.5880413281562127 -0.002730768313747055 0  0.5934904284812221 -0.002895042191696308 0  0.5995995320960693 -0.003078202338538874 0  0.605236779888003 -0.003246210954182579 0  0.6110299855290301 -0.003417806240976177 0  0.6170432999212266 -0.00359472323302265 0  0.6225307972792151 -0.00375505261922207 0  0.6286944373476531 -0.003933803567825084 0  0.6341794289295242 -0.004091634709336539 0  0.6401977648984302 -0.004263413669385436 0  0.6459846030577213 -0.004427148756161272 0  0.6516277670629291 -0.004585409549508515 0  0.6577342305863492 -0.004755038487876419 0  0.6631843111407589 -0.004904958327357115 0  0.6693271588517591 -0.005072208653571043 0  0.6748942591145469 -0.005222152905474348 0  0.6807781354428797 -0.005378892074409919 0  0.6867158102497221 -0.005535201343768038 0  0.6922478556369909 -0.005679100421160843 0  0.6984036264198542 -0.005837205328254034 0  0.7038624132928571 -0.005975584427524931 0  0.7099402809449575 -0.006127588021236129 0  0.7156361945945205 -0.006268012368771779 0  0.7213667017809595 -0.006407263887957157 0  0.7274241898103784 -0.006552202568912044 0  0.7328913375361901 -0.006680980644346233 0  0.7390522654079078 -0.006823736587757829 0  0.7445663161830813 -0.006949337256267011 0  0.7505345306161221 -0.007082931996795786 0  0.7563856967966242 -0.007211490056377221 0  0.7619775509571868 -0.007332073958440476 0  0.7681106054434813 -0.007461725199742056 0  0.7735594228940573 -0.007574589702563127 0  0.7796809699364847 -0.007698739982391196 0  0.7852974086111042 -0.007810142587226769 0  0.7911178568436495 -0.007923025648348906 0  0.797112403703894 -0.008036515862006795 0  0.8026119630288198 -0.008138129173272899 0  0.8087760180262171 -0.008249131188213875 0  0.814253500572072 -0.008345174877796967 0  0.8202905515677629 -0.008448166667805387 0  0.8260544286221699 -0.008543663134562481 0  0.831720415905675 -0.008634807324656511 0  0.8378167080097026 -0.008729817306667463 0  0.8432709709919499 -0.008812108559864256 0  0.8494209576248264 -0.008901791974276371 0  0.8549745826348545 -0.008979924427376591 0  0.8608814329347291 -0.009060026011188804 0  0.8667998142885592 -0.009137155111096256 0  0.8723460990452367 -0.009206568509458774 0  0.8784989383774584 -0.009280301817794542 0  0.8839552890388401 -0.009342788637451834 0  0.8900456692707091 -0.009409293585850673 0  0.8957233874467343 -0.009468190513990782 0  0.9014754209053449 -0.009524786393944277 0  0.9075213579987256 -0.009580921173179099 0  0.9129954731058688 -0.009628765913494807 0  0.9191593188847452 -0.009679229788646495 0  0.9246655330424429 -0.009721240864333262 0  0.9306503084472221 -0.009763603884533442 0  0.9364847200361547 -0.009801580348484516 0  0.9420914259676206 -0.009834972127394636 0  0.948219177636862 -0.009867976960504428 0  0.9536688877131657 -0.009894257783109666 0  0.9597979104438458 -0.009920349306153329 0  0.9654020314719589 -0.009940987600901847 0  0.9712398170272581 -0.009959209624459757 0  0.9772219132298864 -0.009974407121723252 0  0.9827297975109929 -0.009985285083248089 0  0.9888934840407251 -0.009993913310034224 0  0.9943667421923366 -0.009998434045983932 0  1.000414962337846 -0.009999991502249178 0  1.00616395254491 -0.009998125110441144 0  1.011844857354635 -0.009993077234903055 0  1.017933801412069 -0.009984132829796667 0  1.023390946643176 -0.00997301205183276 0  1.029544679732296 -0.009956955598792184 0  1.035089558108845 -0.009939300412459717 0  1.041010936359372 -0.009917116481575694 0  1.04691554237944 -0.00989157814857561 0  1.052471258615448 -0.009864440751261633 0  1.05862104751389 -0.009830897850136421 0  1.064075481579663 -0.009798076706746352 0  1.070173358231585 -0.009757978136698224 0  1.075837941143087 -0.00971752009646258 0  1.081604377355612 -0.009673173917302162 0  1.087640686528322 -0.009623351755525641 0  1.093119387704205 -0.009575135453199036 0  1.099284093826516 -0.009517491101966447 0  1.104783734376909 -0.009463052176492596 0  1.110779897618174 -0.009400480030121557 0  1.116599992234411 -0.00933655469875222 0  1.122217899723542 -0.009271889359757672 0  1.128339818747432 -0.009198135031144493 0  1.133789446190431 -0.00912961705214143 0  1.139923317158062 -0.009049295973540348 0  1.145515844317945 -0.008973134373133167 0  1.151367773813766 -0.008890475161473248 0  1.157336906671575 -0.008803064948780913 0  1.16285160438384 -0.008719557366803981 0  1.16901331600552 -0.008623157866544266 0  1.174481522907442 -0.00853490108265173 0  1.180539122189597 -0.008434191931863186 0  1.186271617394136 -0.008336073959344166 0  1.191966996821913 -0.008235914041393521 0  1.198046448076202 -0.008126091334838595 0  1.203505695906331 -0.008024945109277802 0  1.209661806077474 -0.007908057515838151 0  1.21519584913737 -0.007800455577732041 0  1.221132109188887 -0.00768241304184519 0  1.227019087412133 -0.007562711583992629 0  1.232585135446325 -0.007447155722966398 0  1.238729389023077 -0.007316953404904543 0  1.244180486899644 -0.007199156086382225 0  1.250286093435722 -0.007064709646262071 0  1.255932842016573 -0.006938052500145445 0  1.261716857103797 -0.006806053534187844 0  1.26773845151126 -0.006666245775332091 0  1.273222687278595 -0.006536836953056475 0  1.279386853652711 -0.00638906998029936 0  1.284876650734994 -0.006255450389977176 0  1.290887326898431 -0.00610702037198264 0  1.296685536664392 -0.00596177282270944 0  1.30231949087952 -0.005818744638503708 0  1.308431215520824
[...]
<PointData  Vectors="Traction"> 
<DataArray  type="Float64"  Name="Traction"  NumberOfComponents="3" format="ascii">4.6205600606850496e-06 1.0730676384894758e-02 0.0000000000000000e+00  4.6205600606850496e-06 1.0730676384894758e-02 0.0000000000000000e+00  -4.4623314252631376e-09 -2.3941235819511220e-09 0.0000000000000000e+00  -4.4623314252631376e-09 -2.3941235819511220e-09 0.0000000000000000e+00  -6.1957436571085408e-04 1.8773955241046608e-02 0.0000000000000000e+00  -9.4095680186414058e-04 1.6942796635689230e-02 0.0000000000000000e+00  -1.2745749235104312e-03 1.5708371152997443e-02 0.0000000000000000e+00  -1.8005920584167180e-03 1.7345231867999390e-02 0.0000000000000000e+00  -1.9256338654192854e-03 1.4912268104973304e-02 0.0000000000000000e+00  -3.1178706652284409e-03 2.0304921617671577e-02 0.0000000000000000e+00  -2.3374598071286630e-03 1.3284762839109945e-02 0.0000000000000000e+00  -3.1715258635659480e-03 1.5592007028112399e-02 0.0000000000000000e+00  -3.7885550271296474e-03 1.6558332399388542e-02 0.0000000000000000e+00  -3.5368960560460726e-03 1.3796787929948436e-02 0.0000000000000000e+00  -5.5448779997685450e-03 1.9803655662969984e-02 0.0000000000000000e+00  -3.9167228245770387e-03 1.2914536894143961e-02 0.0000000000000000e+00  -6.7476348963835149e-03 2.0220480819116819e-02 0.0000000000000000e+00  -4.6938897058536920e-03 1.3203528034527812e-02 0.0000000000000000e+00  -5.7995805662532851e-03 1.5117755713656932e-02 0.0000000000000000e+00  -6.9207531907321098e-03 1.6752182764505571e-02 0.0000000000000000e+00  -6.4250112806121728e-03 1.4577597263853237e-02 0.0000000000000000e+00  -6.9636167103147425e-03 1.4836883878071675e-02 0.0000000000000000e+00  -7.9303490955215349e-03 1.5939894462939908e-02 0.0000000000000000e+00  -8.3344202161475776e-03 1.5793562660265447e-02 0.0000000000000000e+00  -8.0946223339534891e-03 1.4673124288009048e-02 0.0000000000000000e+00  -8.4611042899854112e-03 1.4577350536844853e-02 0.0000000000000000e+00  -8.9105557623544562e-03 1.4613601094395232e-02 0.0000000000000000e+00  -8.7491718926295814e-03 1.3676747582875390e-02 0.0000000000000000e+00  -1.2579528598508484e-02 1.8645020831089196e-02 0.0000000000000000e+00  -9.6558198817464445e-03 1.3852896466385187e-02 0.0000000000000000e+00  -1.0269492068793270e-02 1.4151992356891794e-02 0.0000000000000000e+00  -9.5912123917363604e-03 1.2730197259796796e-02 0.0000000000000000e+00  -1.0241005385962402e-02 1.2940790044795494e-02 0.0000000000000000e+00  -1.4919412331651069e-02 1.7945887568395793e-02 0.0000000000000000e+00  -1.0790468495214981e-02 1.2631456982419761e-02 0.0000000000000000e+00  -1.0938923855388395e-02 1.2270465247286715e-02 0.0000000000000000e+00  -1.6442838294927258e-02 1.7645819033774438e-02 0.0000000000000000e+00  -1.0452851922856886e-02 1.0860426474837460e-02 0.0000000000000000e+00  -1.7178815969218175e-02 1.7246796619563291e-02 0.0000000000000000e+00  -1.0746035369004679e-02 1.0393180289979306e-02 0.0000000000000000e+00  -1.8109343525567111e-02 1.6817577883492845e-02 0.0000000000000000e+00  -1.2864533201963013e-02 1.1557035538209137e-02 0.0000000000000000e+00  -1.3286554136609815e-02 1.1462278109968834e-02 0.0000000000000000e+00  -1.9183657967740960e-02 1.5956517642572512e-02 0.0000000000000000e+00  -1.1741873103948152e-02 9.4587054724926695e-03 0.0000000000000000e+00  -2.0101376637897551e-02 1.5593985435471660e-02 0.0000000000000000e+00  -1.3676690755222898e-02 1.0289319303284973e-02 0.0000000000000000e+00  -2.1695335145533096e-02 1.5728442971450377e-02 0.0000000000000000e+00  -1.4616125088300194e-02 1.0333631894493702e-02 0.0000000000000000e+00  -1.6896993167656912e-02 1.1492282398627899e-02 0.0000000000000000e+00  -1.8665178698708637e-02 1.2176128376307304e-02 0.0000000000000000e+00  -1.6257258620762008e-02 1.0233650606851040e-02 0.0000000000000000e+00  -2.2428399725027161e-02 1.3584603031818720e-02 0.0000000000000000e+00  -1.5885748224645668e-02 9.3487292131722594e-03 0.0000000000000000e+00  -1.8969901252723645e-02 1.0717853530388498e-02 0.0000000000000000e+00  -1.6616822472555349e-02 9.1243920830201414e-03 0.0000000000000000e+00  -2.4035272387306867e-02 1.2769350068546372e-02 0.0000000000000000e+00  -1.5510052662460083e-02 7.9719381459543385e-03 0.0000000000000000e+00  -1.7090668831971030e-02 8.4599677449094853e-03 0.0000000000000000e+00  -2.5820485321946900e-02 1.2179934699061446e-02 0.0000000000000000e+00  -1.9315676610338901e-02 8.8568200833157636e-03 0.0000000000000000e+00  -1.7819312148087147e-02 7.8218175399924900e-03 0.0000000000000000e+00  -2.6184762098993432e-02 1.1077523837336683e-02 0.0000000000000000e+00  -1.7202576376303843e-02 6.9712293938254920e-03 0.0000000000000000e+00  -2.7675873222268877e-02 1.0705063733240858e-02 0.0000000000000000e+00  -1.8401664806307495e-02 6.8573680533792428e-03 0.0000000000000000e+00  -2.1509503627752526e-02 7.6753457940054561e-03 0.0000000000000000e+00  -2.3157707693117417e-02 7.8538752651841140e-03 0.0000000000000000e+00  -2.1076399587631914e-02 6.8278179710176213e-03 0.0000000000000000e+00  -2.1437043473986641e-02 6.6253925643166940e-03 0.0000000000000000e+00  -2.3752919167180066e-02 6.9745027015495845e-03 0.0000000000000000e+00  -2.2199755421532685e-02 6.2172441598788500e-03 0.0000000000000000e+00  -2.2808603256188241e-02 6.1005114371254143e-03 0.0000000000000000e+00  -2.4287721823584595e-02 6.1446281219081876e-03 0.0000000000000000e+00  -2.3225663623003927e-02 5.5685605609012900e-03 0.0000000000000000e+00  -2.3149978103843439e-02 5.2242059018923507e-03 0.0000000000000000e+00  -2.4353529633656064e-02 5.1286337733548026e-03 0.0000000000000000e+00  -2.0955445055281470e-02 4.1328212524327432e-03 0.0000000000000000e+00  -2.9988897459926171e-02 5.5318417254534239e-03 0.0000000000000000e+00  -2.0710096066568890e-02 3.5761380868524141e-03 0.0000000000000000e+00  -2.4678616281171364e-02 3.9204727048247658e-03 0.0000000000000000e+00  -2.3868227923248071e-02 3.4573802177567587e-03 0.0000000000000000e+00  -2.1533957120243762e-02 2.8503452686836493e-03 0.0000000000000000e+00  -3.0564422389002172e-02 3.6939495195233434e-03 0.0000000000000000e+00  -2.2103536588929613e-02 2.3509440149963572e-03 0.0000000000000000e+00  -2.2080743721730554e-02 2.0459911915550965e-03 0.0000000000000000e+00  -3.0936421503651956e-02 2.4781007870086145e-03 0.0000000000000000e+00  -2.2248674231795888e-02 1.4777690234476389e-03 0.0000000000000000e+00  -2.3610301862505886e-02 1.2712734447974422e-03 0.0000000000000000e+00  -2.4326232511882345e-02 9.9383281757060393e-04 0.0000000000000000e+00  -2.4984787135000377e-02 6.8005226875361246e-04 0.0000000000000000e+00  -2.4478153184690300e-02 3.4737400794357040e-04 0.0000000000000000e+00  -2.4559052262712430e-02 2.2710755586517712e-05 0.0000000000000000e+00  -2.5451497037682829e-02 -2.9955502487427518e-04 0.0000000000000000e+00  -2.2547814772231670e-02 -5.5390526244320469e-04 0.0000000000000000e+00  -3.1619293999417812e-02 -1.1608041913534534e-03 0.0000000000000000e+00  -2.2660230697991019e-02 -1.0992631478372013e-03 0.0000000000000000e+00  -2.3220856521617185e-02 -1.4123594876274573e-03 0.0000000000000000e+00  -3.2286533675398202e-02 -2.3185817698828984e-03 0.0000000000000000e+00  -2.0509573173343419e-02 -1.7218577641933148e-03 0.0000000000000000e+00  -3.2146591946356301e-02 -3.0524742131354792e-03 0.0000000000000000e+00  -2.2992392089857414e-02 -2.4707380548053192e-03 0.0000000000000000e+00  -2.4105622091167008e-02 -2.8870234390635146e-03 0.0000000000000000e+00  -2.4301150931489192e-02 -3.1849228070016246e-03 0.0000000000000000e+00  -2.5250662559129337e-02 -3.6440778881085410e-03 0.0000000000000000e+00  -2.3643893184310535e-02 -3.7393403780986985e-03 0.0000000000000000e+00  -2.2684866311467159e-02 -3.9317260109011072e-03 0.0000000000000000e+00  -3.1967814526111721e-02 -5.9254322667519508e-03 0.0000000000000000e+00  -2.3859590233133787e-02 -4.8113970390283780e-03 0.0000000000000000e+00  -2.3472266903844841e-02 -5.1264242094998091e-03 0.0000000000000000e+00  -2.3489725543278980e-02 -5.4437497163897187e-03 0.0000000000000000e+00  -2.3860033276551666e-02 -5.8595841935499297e-03 0.0000000000000000e+00  -2.3517182051666977e-02 -6.1823320593033587e-03 0.0000000000000000e+00  -2.3621763787681188e-02 -6.5506239648590097e-03 0.0000000000000000e+00  -2.4204906079322640e-02 -7.0354881235703054e-03 0.0000000000000000e+00  -2.1620819368858159e-02 -6.6461412962213829e-03 0.0000000000000000e+00  -2.9819287004114774e-02 -9.6439526872075156e-03 0.0000000000000000e+00  -1.9864881170109216e-02 -6.7234406552419369e-03 0.0000000000000000e+00  -2.1362362597598984e-02 -7.5907767414039517e-03 0.0000000000000000e+00  -2.9707197773244445e-02 -1.0892312862084709e-02 0.0000000000000000e+00  -2.0801411493242227e-02 -8.0135387456927373e-03 0.0000000000000000e+00  -2.9336535070034239e-02 -1.1694989281126004e-02 0.0000000000000000e+00  -2.0752577149281987e-02 -8.6355534213283063e-03 0.0000000000000000e+00  -1.9149975310619679e-02 -8.3503558638964893e-03 0.0000000000000000e+00  -2.0654362415595904e-02 -9.3170735815983029e-03 0.0000000000000000e+00  -2.2387524693496169e-02 -1.0457771134260902e-02 0.0000000000000000e+00  -2.1689453142359882e-02 -1.0521479923315256e-02 0.0000000000000000e+00  -1.8818635705836868e-02 -9.5203425526154319e-03 0.0000000000000000e+00  -2.5784110130957039e-02 -1.3510007364721065e-02 0.0000000000000000e+00  -1.8807159563463606e-02 -1.0247899601542633e-02 0.0000000000000000e+00  -1.9136770207098995e-02 -1.0875092052360596e-02 0.0000000000000000e+00  -1.9367484758217198e-02 -1.1363032474409047e-02 0.0000000000000000e+00  -1.8276788929582951e-02 -1.1162712169733942e-02 0.0000000000000000e+00  -1.8535102904912820e-02 -1.1796139649798081e-02 0.0000000000000000e+00  -1.9770762249245618e-02 -1.3012526549151368e-02 0.0000000000000000e+00  -1.9150459317412369e-02 -1.3161316964956647e-02 0.0000000000000000e+00  -1.8313412263342741e-02 -1.3110875395792049e-02 0.0000000000000000e+00  -1.7559044373759613e-02 -1.3097694955421690e-02 0.0000000000000000e+00  -1.8261230379169411e-02 -1.4127084106454923e-02 0.0000000000000000e+00  -1.6509775179011591e-02 -1.3344922125628593e-02 0.0000000000000000e+00  -1.5752418271936457e-02 -1.3286391408331519e-02 0.0000000000000000e+00  -1.7597528995969131e-02 -1.5419539311949478e-02 0.0000000000000000e+00  -1.5505084721117918e-02 -1.4210095518860797e-02 0.0000000000000000e+00  -1.5157011893615355e-02 -1.4404547488374093e-02 0.0000000000000000e+00  -1.5793166651209549e-02 -1.5614861935171101e-02 0.0000000000000000e+00  -1.4334185772362673e-02 -1.4754022483795154e-02 0.0000000000000000e+00  -1.3623286454645349e-02 -1.4656474685832720e-02 0.0000000000000000e+00  -1.8297495018527142e-02 -2.0436878360894421e-02 0.0000000000000000e+00  -1.2179197050340528e-02 -1.4202133010504955e-02 0.0000000000000000e+00  -1.2521277437864055e-02 -1.5362979273780086e-02 0.0000000000000000e+00  -1.3067841308031986e-02 -1.6738702270979625e-02 0.0000000000000000e+00  -1.1652545366919682e-02 -1.5706847148873920e-02 0.0000000000000000e+00  -1.0975772565179094e-02 -1.5552113830502499e-02 0.0000000000000000e+00  -1.2010344008849707e-02 -1.7894900644209268e-02 0.0000000000000000e+00  -1.0374825126998831e-02 -1.6408029510278963e-02 0.0000000000000000e+00  -9.9620031498914192e-03 -1.6572042133087165e-02 0.0000000000000000e+00  -1.0114313800114495e-02 -1.7836941571937666e-02 0.0000000000000000e+00  -8.9698312305272389e-03 -1.6767917842955723e-02 0.0000000000000000e+00  -8.1749394287193144e-03 -1.6269741592180371e-02 0.0000000000000000e+00  -1.0710186334625442e-02 -2.2599676252901272e-02 0.0000000000000000e+00  -6.8814451250163019e-03 -1.5474702129531061e-02 0.0000000000000000e+00  -6.9551194341870726e-03 -1.6955136195007936e-02 0.0000000000000000e+00  -7.0153162919174257e-03 -1.8418590820512535e-02 0.0000000000000000e+00  -5.9710884367208056e-03 -1.7133497730050243e-02 0.0000000000000000e+00  -5.3623563154114309e-03 -1.6822666211996545e-02 0.0000000000000000e+00  -5.5715768166994849e-03 -1.9262624349091557e-02 0.0000000000000000e+00  -4.5073672363870739e-03 -1.7493909788057902e-02 0.0000000000000000e+00  -4.0871848478698071e-03 -1.7643006507525132e-02 0.0000000000000000e+00  -3.8079714837505642e-03 -1.8885790159367432e-02 0.0000000000000000e+00  -3.0551785702571028e-03 -1.7552258850531806e-02 0.0000000000000000e+00  -2.4868763312430671e-03 -1.7241127469732973e-02 0.0000000000000000e+00  -2.7959119088614864e-03 -2.3861552336675758e-02 0.0000000000000000e+00  -1.5059825321299789e-03 -1.6485179981597299e-02 0.0000000000000000e+00  -1.0443475163055336e-03 -1.7572331383480581e-02 0.0000000000000000e+00  -6.1572764544826672e-04 -1.8987635755886113e-02 0.0000000000000000e+00  -4.6974850238745804e-05 -1.7760618122361425e-02 0.0000000000000000e+00  4.4371613245888553e-04 -1.7267721392631656e-02 0.0000000000000000e+00  1.0891577514199730e-03 -1.9794892323269031e-02 0.0000000000000000e+00  1.5210192658704890e-03 -1.7836385261040873e-02 0.0000000000000000e+00  1.9939047260131211e-03 -1.7906627400241931e-02 0.0000000000000000e+00  2.7166925690170311e-03 -1.9089956904472054e-02 0.0000000000000000e+00  3.0036410231738149e-03 -1.7680052978217557e-02 0.0000000000000000e+00  3.3625988028601278e-03 -1.6825364451669701e-02 0.0000000000000000e+00  5.3925347649047316e-03 -2.3517047777326671e-02 0.0000000000000000e+00  4.1108409331814689e-03 -1.6116483856955847e-02 0.0000000000000000e+00  4.9759609716553783e-03 -1.7325369149655798e-02 0.0000000000000000e+00  5.9025533774666288e-03 -1.8666271294961546e-02 0.0000000000000000e+00  6.0071070060492889e-03 -1.7291633008625126e-02 0.0000000000000000e+00  6.3470175514415148e-03 -1.6815997862378335e-02 0.0000000000000000e+00  7.8905190566551479e-03 -1.9255529825205821e-02 0.0000000000000000e+00  6.9597833346959773e-03 -1.5706077341787941e-02 0.0000000000000000e+00  1.0272707839575825e-02 -2.1780108985060980e-02 0.0000000000000000e+00  7.8698035144107708e-03 -1.5613505080521946e-02 0.0000000000000000e+00  8.9367492113952007e-03 -1.6691579352144718e-02 0.0000000000000000e+00  9.5362156412946899e-03 -1.6743223177467719e-02 0.0000000000000000e+00  1.0678673346385115e-02 -1.7644596425410494e-02 0.0000000000000000e+00  9.7933833130948514e-03 -1.5353885682148313e-02 0.0000000000000000e+00  1.3890710740193877e-02 -2.0678553494823278e-02 0.0000000000000000e+00  1.0625389473088762e-02 -1.5112531251468303e-02 0.0000000000000000e+00  1.1411620695576989e-02 -1.5441493242508130e-02 0.0000000000000000e+00  1.2017539433487661e-02 -1.5597749013762473e-02 0.0000000000000000e+00  1.2879266835858843e-02 -1.5879975523902544e-02 0.0000000000000000e+00  1.2974953537326982e-02 -1.5322497615473890e-02 0.0000000000000000e+00  1.2924427205951189e-02 -1.4697327508566550e-02 0.0000000000000000e+00  1.4014765009550505e-02 -1.5061328309367138e-02 0.0000000000000000e+00  1.4213396462114681e-02 -1.4763021003315563e-02 0.0000000000000000e+00  1.4798439247305060e-02 -1.4755651665358060e-02 0.0000000000000000e+00  1.5770585596155934e-02 -1.4984373648800065e-02 0.0000000000000000e+00  1.4502788970225527e-02 -1.3256022159716052e-02 0.0000000000000000e+00  2.0324039925219934e-02 -1.7837101862334510e-02 0.0000000000000000e+00  1.5350665928044389e-02 -1.2957387947308382e-02 0.0000000000000000e+00  1.6237624696933930e-02 -1.3180350175216189e-02 0.0000000000000000e+00  1.6583691325852128e-02 -1.2989147221813177e-02 0.0000000000000000e+00  1.7582230116013665e-02 -1.3130179664865604e-02 0.0000000000000000e+00  1.7416472911281299e-02 -1.2559379209054063e-02 0.0000000000000000e+00  1.7275231277373522e-02 -1.2055270876164814e-02 0.0000000000000000e+00  1.8584457429392184e-02 -1.2385576813506325e-02 0.0000000000000000e+00  1.9159882480581307e-02 -1.2401054151296753e-02 0.0000000000000000e+00  1.8858657242525147e-02 -1.1706908945656749e-02 0.0000000000000000e+00  2.0558734630468239e-02 -1.2234858467316615e-02 0.0000000000000000e+00  1.8895761599275907e-02 -1.0862662264213936e-02 0.0000000000000000e+00  2.5570381502052215e-02 -1.4213204333770159e-02 0.0000000000000000e+00  1.9277969682265375e-02 -1.0366600628423976e-02 0.0000000000000000e+00  2.0215031628439330e-02 -1.0449739683460487e-02 0.0000000000000000e+00  2.0732530979005716e-02 -1.0334031490095569e-02 0.0000000000000000e+00  2.2368758677686427e-02 -1.0689936914051111e-02 0.0000000000000000e+00  2.1740237892913902e-02 -1.0058808127894718e-02 0.0000000000000000e+00  1.9395422736945302e-02 -8.6579430987629748e-03 0.0000000000000000e+00  2.8766952923499893e-02 -1.2240928810610133e-02 0.0000000000000000e+00  1.9460303458634740e-02 -8.0066530245313985e-03 0.0000000000000000e+00  2.2080400277442732e-02 -8.6599904017764847e-03 0.0000000000000000e+00  2.3433084316157766e-02 -8.7452719940215411e-03 0.0000000000000000e+00  2.1432230690960941e-02 -7.6467482239663664e-03 0.0000000000000000e+00  2.9208436350196387e-02 -9.9471242865372868e-03 0.0000000000000000e+00  2.1838258518212712e-02 -7.0757677124099238e-03 0.0000000000000000e+00  2.2050018359208171e-02 -6.7457815022230255e-03 0.0000000000000000e+00  2.3046289952289759e-02 -6.6729036003971287e-03 0.0000000000000000e+00  2.5256946021095326e-02 -6.8858891950636823e-03 0.0000000000000000e+00  2.3545438253957076e-02 -6.1057236209780636e-03 0.0000000000000000e+00  2.4332643650970542e-02 -5.9939002268366752e-03 0.0000000000000000e+00  2.5500060548860091e-02 -5.8889771460085422e-03 0.0000000000000000e+00  2.4357978900243472e-02 -5.2991928631563141e-03 0.0000000000000000e+00  2.2070458890552636e-02 -4.4696855072879765e-03 0.0000000000000000e+00  3.2404984883668560e-02 -6.0616187635860351e-03 0.0000000000000000e+00  2.1139127442053231e-02 -3.6684015762722595e-03 0.0000000000000000e+00  3.1724202061503830e-02 -5.0515024055854934e-03 0.0000000000000000e+00  2.2873007624584222e-02 -3.3327313869493239e-03 0.0000000000000000e+00  2.2361993708175879e-02 -2.9532864121877057e-03 0.0000000000000000e+00  3.1504835601680416e-02 -3.7926897467038373e-03 0.0000000000000000e+00  2.2769361514407185e-02 -2.4677087227716397e-03 0.0000000000000000e+00  2.4171526971905086e-02 -2.3221486361072428e-03 0.0000000000000000e+00  2.4989127488847684e-02 -2.0715081102963156e-03 0.0000000000000000e+00  2.5658615595399697e-02 -1.7538904757396672e-03 0.0000000000000000e+00  2.5191573065533837e-02 -1.3931678419988494e-03 0.0000000000000000e+00  2.5093633935675361e-02 -1.0484372636343435e-03 0.0000000000000000e+00  2.5860095495797653e-02 -7.2383383191484030e-04 0.0000000000000000e+00  2.2530207292470576e-02 -3.4341072078156800e-04 0.0000000000000000e+00  3.2091725194810711e-02 -6.1014762081668708e-05 0.0000000000000000e+00  1.9240897969862038e-02 1.9512384647001768e-04 0.0000000000000000e+00  3.2185268629719571e-02 7.9050699389034856e-04 0.0000000000000000e+00  2.1822706682276528e-02 8.0152058492036660e-04 0.0000000000000000e+00  2.5458629043953053e-02 1.2881079656386222e-03 0.0000000000000000e+00  2.5126799907160009e-02 1.6121457735604047e-03 0.0000000000000000e+00  2.3398363788280543e-02 1.7888790924982098e-03 0.0000000000000000e+00  2.5754395450461699e-02 2.2786499065655962e-03 0.0000000000000000e+00  2.3290262027083782e-02 2.3443206308576530e-03 0.0000000000000000e+00  2.1708547588857808e-02 2.4262655949985690e-03 0.0000000000000000e+00  3.1380566364567340e-02 3.8164668230454366e-03 0.0000000000000000e+00  2.3358782467993174e-02 3.1344228362904856e-03 0.0000000000000000e+00  2.3045028024138582e-02 3.3828687880587305e-03 0.0000000000000000e+00  2.3828897244499148e-02 3.7824588822250376e-03 0.0000000000000000e+00  2.4946038236399137e-02 4.2620352245736409e-03 0.0000000000000000e+00  2.2727635121917698e-02 4.1692899686960137e-03 0.0000000000000000e+00  2.2562782306270669e-02 4.4249694492453640e-03 0.0000000000000000e+00  2.2504108501269181e-02 4.6861724404803559e-03 0.0000000000000000e+00  2.2921460427184518e-02 5.0661603968542700e-03 0.0000000000000000e+00  2.3807937568742828e-02 5.5309521482062160e-03 0.0000000000000000e+00  2.3981732828928144e-02 5.9029713940616920e-03 0.0000000000000000e+00  2.0704847432401710e-02 5.4041628923219079e-03 0.0000000000000000e+00  2.90860658699