<?xml version="1.0"?>
<VTKFile type="UnstructuredGrid"  version="0.1"  >
<UnstructuredGrid>
<Piece  NumberOfPoints="4278" NumberOfCells="6772">
<Points>
<DataArray  type="Float64"  NumberOfComponents="3"  format="ascii">0 0.01 0  10 0.01 0  0 1.0209841656229 0  10 1.0209841656229 0  0.007129524987038337 0.009997491741717768 0  0.01258064459049757 0.00999219056738478 0  0.01872173241756402 0.009982708334120727 0  0.02429919625640796 0.009970876572043954 0  0.03017238705920286 0.009955108531615313 0  0.03612352734296466 0.0099356743715591 0  0.04164979236492252 0.009914517792428084 0  0.04780928449023854 0.009887415768096998 0  0.05327287671237849 0.009860276931383746 0  0.0593436395885565 0.009826715421083503 0  0.06505608699933001 0.009791870631895848 0  0.07077243060783153 0.009753845329312128 0  0.07684085351634186 0.009710036052663748 0  0.08230528612367993 0.009667566921662384 0  0.08846525752759338 0.009616276826848907 0  0.09398926586603956 0.0095672187064786 0  0.09994377871281757 0.009511110804477986 0  0.10581288515308 0.009452550633355501 0  0.1113930001121819 0.009393893683773193 0  0.1175326299024069 0.009326020378011352 0  0.122983161250664 0.009262856809916281 0  0.1290978349347763 0.009188765415777931 0  0.1347300222736412 0.00911751981665075 0  0.1405327472005438 0.009041131768776852 0  0.1465421455697866 0.008958856277281909 0  0.1520341809431761 0.008880870879718691 0  0.1581991754706344 0.00879018143976357 0  0.1636834803794234 0.008706732874359017 0  0.1697073563005918 0.008612096527554045 0  0.1754901396361989 0.008518345936558386 0  0.1811391035120075 0.008424050210098115 0  0.1872444279222087 0.00831915423323064 0  0.1926961446341008 0.008222899998379215 0  0.198841090009393 0.008111516418624823 0  0.2044064770158165 0.008008028244452866 0  0.2102948627703611 0.007895869216798803 0  0.2162299794791283 0.007780085801116003 0  0.2217647046821167 0.007669675498109103 0  0.2279204403470532 0.007544154739747676 0  0.2333791472114919 0.007430485124751003 0  0.2394590817234977 0.0073013084386626 0  0.245152498789355 0.007177928079207972 0  0.2508861115607116 0.007051356111670669 0  0.2569419868439766 0.006915186417023598 0  0.2624099649457279 0.006790084113692359 0  0.2685711825796066 0.006646722567663751 0  0.274083748205357 0.006516341894728842 0  0.2800541704182985 0.00637292855786236 0  0.2859022845836161 0.006230279166502627 0  0.291495955429921 0.006091868246150131 0  0.2976275706217687 0.005937986548763313 0  0.3030757324287757 0.005799406374294222 0  0.3091980118239236 0.005641654227187252 0  0.3148109405089491 0.005495191514879527 0  0.3206341933715942 0.005341435282378838 0  0.3266248575896781 0.005181393525330103 0  0.3321252080346692 0.005032833254881577 0  0.3382880718234609 0.004864596209960478 0  0.3437628463580178 0.004713611578807419 0  0.3498021006600692 0.004545443593512952 0  0.3555594631656461 0.004383601001460968 0  0.3612291099056053 0.004222822711549606 0  0.3673210805066339 0.004048576418709386 0  0.3727746135437823 0.003891330909934085 0  0.3789246700786391 0.003712634483246944 0  0.3844721023230384 0.00355025746928806 0  0.3903845048135511 0.003376011435332509 0  0.3962935688476314 0.003200699755406988 0  0.4018430601204535 0.00303505085978487 0  0.4079921977692303 0.002850427660455144 0  0.4134449905916002 0.002685819499171436 0  0.4195385366679084 0.002500937932218923 0  0.425204482428441 0.002328206591247292 0  0.4309651825948974 0.00215183074136113 0  0.4370014133195289 0.001966263547608745 0  0.4424769325836848 0.00179732019881714 0  0.4486395183564056 0.001606544730410899 0  0.4541373275735043 0.001435838569361521 0  0.4601308451156257 0.001249254088784412 0  0.4659488863550298 0.001067707976620331 0  0.471564807260988 0.0008921302908496037 0  0.4776843759254726 0.0007004920228137959 0  0.4831317484445766 0.0005296836585198918 0  0.4892643513384632 0.0003372062279158936 0  0.4948528283485032 0.000161696161435303 0  0.5007056813361916 -2.216943068070812e-05 0  0.5066699093509902 -0.000209526046556915 0  0.5121845298566023 -0.0003826949545447442 0  0.5183439831944545 -0.0005759742926309219 0  0.5238088617282698 -0.0007472800272428554 0  0.5298681543527348 -0.0009369594486414562 0  0.5355929349139432 -0.001115856450691032 0  0.5412927239341832 -0.001293613669039852 0  0.5473668732672543 -0.001482588207084091 0  0.5528259073001393 -0.001651967505962102 0  0.5589819336317072 -0.001842386787779294 0  0.5645100189486582 -0.002012797049529044 0  0.5704524332663232 -0.002195301346534757 0  0.5763298911552834 -0.002375058665203144 0  0.5819006708717119 -0.002544689651648297 0  0.5880413281562127 -0.002730768313747055 0  0.5934904284812221 -0.002895042191696308 0  0.5995995320960693 -0.003078202338538874 0  0.605236779888003 -0.003246210954182579 0  0.6110299855290301 -0.003417806240976177 0  0.6170432999212266 -0.00359472323302265 0  0.6225307972792151 -0.00375505261922207 0  0.6286944373476531 -0.003933803567825084 0  0.6341794289295242 -0.004091634709336539 0  0.6401977648984302 -0.004263413669385436 0  0.6459846030577213 -0.004427148756161272 0  0.6516277670629291 -0.004585409549508515 0  0.6577342305863492 -0.004755038487876419 0  0.6631843111407589 -0.004904958327357115 0  0.6693271588517591 -0.005072208653571043 0  0.6748942591145469 -0.005222152905474348 0  0.6807781354428797 -0.005378892074409919 0  0.6867158102497221 -0.005535201343768038 0  0.6922478556369909 -0.005679100421160843 0  0.6984036264198542 -0.005837205328254034 0  0.7038624132928571 -0.005975584427524931 0  0.7099402809449575 -0.006127588021236129 0  0.7156361945945205 -0.006268012368771779 0  0.7213667017809595 -0.006407263887957157 0  0.7274241898103784 -0.006552202568912044 0  0.7328913375361901 -0.006680980644346233 0  0.7390522654079078 -0.006823736587757829 0  0.7445663161830813 -0.006949337256267011 0  0.7505345306161221 -0.007082931996795786 0  0.7563856967966242 -0.007211490056377221 0  0.7619775509571868 -0.007332073958440476 0  0.7681106054434813 -0.007461725199742056 0  0.7735594228940573 -0.007574589702563127 0  0.7796809699364847 -0.007698739982391196 0  0.7852974086111042 -0.007810142587226769 0  0.7911178568436495 -0.007923025648348906 0  0.797112403703894 -0.008036515862006795 0  0.8026119630288198 -0.008138129173272899 0  0.8087760180262171 -0.008249131188213875 0  0.814253500572072 -0.008345174877796967 0  0.8202905515677629 -0.008448166667805387 0  0.8260544286221699 -0.008543663134562481 0  0.831720415905675 -0.008634807324656511 0  0.8378167080097026 -0.008729817306667463 0  0.8432709709919499 -0.008812108559864256 0  0.8494209576248264 -0.008901791974276371 0  0.8549745826348545 -0.008979924427376591 0  0.8608814329347291 -0.009060026011188804 0  0.8667998142885592 -0.009137155111096256 0  0.8723460990452367 -0.009206568509458774 0  0.8784989383774584 -0.009280301817794542 0  0.8839552890388401 -0.009342788637451834 0  0.8900456692707091 -0.009409293585850673 0  0.8957233874467343 -0.009468190513990782 0  0.9014754209053449 -0.009524786393944277 0  0.9075213579987256 -0.009580921173179099 0  0.9129954731058688 -0.009628765913494807 0  0.9191593188847452 -0.009679229788646495 0  0.9246655330424429 -0.009721240864333262 0  0.9306503084472221 -0.009763603884533442 0  0.9364847200361547 -0.009801580348484516 0  0.9420914259676206 -0.009834972127394636 0  0.948219177636862 -0.009867976960504428 0  0.9536688877131657 -0.009894257783109666 0  0.9597979104438458 -0.009920349306153329 0  0.9654020314719589 -0.009940987600901847 0  0.9712398170272581 -0.009959209624459757 0  0.9772219132298864 -0.009974407121723252 0  0.9827297975109929 -0.009985285083248089 0  0.9888934840407251 -0.009993913310034224 0  0.9943667421923366 -0.009998434045983932 0  1.000414962337846 -0.009999991502249178 0  1.00616395254491 -0.009998125110441144 0  1.011844857354635 -0.009993077234903055 0  1.017933801412069 -0.009984132829796667 0  1.023390946643176 -0.00997301205183276 0  1.029544679732296 -0.009956955598792184 0  1.035089558108845 -0.009939300412459717 0  1.041010936359372 -0.009917116481575694 0  1.04691554237944 -0.00989157814857561 0  1.052471258615448 -0.009864440751261633 0  1.05862104751389 -0.009830897850136421 0  1.064075481579663 -0.009798076706746352 0  1.070173358231585 -0.009757978136698224 0  1.075837941143087 -0.00971752009646258 0  1.081604377355612 -0.009673173917302162 0  1.087640686528322 -0.009623351755525641 0  1.093119387704205 -0.009575135453199036 0  1.099284093826516 -0.009517491101966447 0  1.104783734376909 -0.009463052176492596 0  1.110779897618174 -0.009400480030121557 0  1.116599992234411 -0.00933655469875222 0  1.122217899723542 -0.009271889359757672 0  1.128339818747432 -0.009198135031144493 0  1.133789446190431 -0.00912961705214143 0  1.139923317158062 -0.009049295973540348 0  1.145515844317945 -0.008973134373133167 0  1.151367773813766 -0.008890475161473248 0  1.157336906671575 -0.008803064948780913 0  1.16285160438384 -0.008719557366803981 0  1.16901331600552 -0.008623157866544266 0  1.174481522907442 -0.00853490108265173 0  1.180539122189597 -0.008434191931863186 0  1.186271617394136 -0.008336073959344166 0  1.191966996821913 -0.008235914041393521 0  1.198046448076202 -0.008126091334838595 0  1.203505695906331 -0.008024945109277802 0  1.209661806077474 -0.007908057515838151 0  1.21519584913737 -0.007800455577732041 0  1.221132109188887 -0.00768241304184519 0  1.227019087412133 -0.007562711583992629 0  1.232585135446325 -0.007447155722966398 0  1.238729389023077 -0.007316953404904543 0  1.244180486899644 -0.007199156086382225 0  1.250286093435722 -0.007064709646262071 0  1.255932842016573 -0.006938052500145445 0  1.261716857103797 -0.006806053534187844 0  1.26773845151126 -0.006666245775332091 0  1.273222687278595 -0.006536836953056475 0  1.279386853652711 -0.00638906998029936 0  1.284876650734994 -0.006255450389977176 0  1.290887326898431 -0.00610702037198264 0  1.296685536664392 -0.00596177282270944 0  1.30231949087952 -0.005818744638503708 0  1.308431215520824 -0.
[...]
<PointData  Vectors="Traction"> 
<DataArray  type="Float64"  Name="Traction"  NumberOfComponents="3" format="ascii">1.3839938923265611e-05 1.1999520615017818e-02 0.0000000000000000e+00  1.3839938923265611e-05 1.1999520615017818e-02 0.0000000000000000e+00  -8.5340502196943448e-09 -8.8792148154740151e-09 0.0000000000000000e+00  -8.5340502196943448e-09 -8.8792148154740151e-09 0.0000000000000000e+00  -6.3753417103429722e-04 2.0201394950381760e-02 0.0000000000000000e+00  -9.7082257180729594e-04 1.8356149983719060e-02 0.0000000000000000e+00  -1.3171641267798236e-03 1.7012315118627403e-02 0.0000000000000000e+00  -1.8630795192839211e-03 1.8786045294646895e-02 0.0000000000000000e+00  -1.9978814993344353e-03 1.6163078819203855e-02 0.0000000000000000e+00  -3.2333608746797841e-03 2.2003011400992600e-02 0.0000000000000000e+00  -2.4231354115883744e-03 1.4375519469372364e-02 0.0000000000000000e+00  -3.2881494814279953e-03 1.6858763524906350e-02 0.0000000000000000e+00  -3.9309878616687497e-03 1.7926362475917321e-02 0.0000000000000000e+00  -3.6628592597575949e-03 1.4918968120489666e-02 0.0000000000000000e+00  -5.7518098289163419e-03 2.1454999586853929e-02 0.0000000000000000e+00  -4.0676503387509074e-03 1.3974084978533224e-02 0.0000000000000000e+00  -7.0188020568556081e-03 2.1929698638037922e-02 0.0000000000000000e+00  -4.8843007681537128e-03 1.4302239943598607e-02 0.0000000000000000e+00  -6.0446282817595903e-03 1.6390236679133127e-02 0.0000000000000000e+00  -7.2215135004543244e-03 1.8166548477897494e-02 0.0000000000000000e+00  -6.7076855775808119e-03 1.5796362260308547e-02 0.0000000000000000e+00  -7.2681362310481647e-03 1.6062801848480746e-02 0.0000000000000000e+00  -8.2722455442259708e-03 1.7247266465875381e-02 0.0000000000000000e+00  -8.6862079484919755e-03 1.7083926518848824e-02 0.0000000000000000e+00  -8.4315829051925875e-03 1.5864888832979946e-02 0.0000000000000000e+00  -8.7950596807597307e-03 1.5744697566527275e-02 0.0000000000000000e+00  -9.2743588181247658e-03 1.5817030654377770e-02 0.0000000000000000e+00  -9.1243762643970373e-03 1.4848422020636666e-02 0.0000000000000000e+00  -1.3108343704066706e-02 2.0245479461935813e-02 0.0000000000000000e+00  -1.0155257617243247e-02 1.5182281834262481e-02 0.0000000000000000e+00  -1.0718229671364727e-02 1.5358182748732548e-02 0.0000000000000000e+00  -1.0010295296126683e-02 1.3805191111558679e-02 0.0000000000000000e+00  -1.0766196423467626e-02 1.4123015193624138e-02 0.0000000000000000e+00  -1.5580902031828924e-02 1.9478489718004085e-02 0.0000000000000000e+00  -1.1334185781746471e-02 1.3757032009871641e-02 0.0000000000000000e+00  -1.1596748199258773e-02 1.3477235132650148e-02 0.0000000000000000e+00  -1.7255342594180018e-02 1.9205400585500416e-02 0.0000000000000000e+00  -1.1058468789704274e-02 1.1920602761589419e-02 0.0000000000000000e+00  -1.7903553296833595e-02 1.8608935338191239e-02 0.0000000000000000e+00  -1.1031547454590333e-02 1.1051434071049684e-02 0.0000000000000000e+00  -1.8640167179467076e-02 1.7971861190200760e-02 0.0000000000000000e+00  -1.3233891024316703e-02 1.2336769888727381e-02 0.0000000000000000e+00  -1.3823407649335841e-02 1.2396182033056135e-02 0.0000000000000000e+00  -1.9890088940895331e-02 1.7177445616087441e-02 0.0000000000000000e+00  -1.2149782707175734e-02 1.0153133159899363e-02 0.0000000000000000e+00  -2.0873095515119153e-02 1.6800860025648810e-02 0.0000000000000000e+00  -1.4281579926542758e-02 1.1137751561640949e-02 0.0000000000000000e+00  -2.2605585791500484e-02 1.6999576969670853e-02 0.0000000000000000e+00  -1.5268185961334236e-02 1.1192074878558248e-02 0.0000000000000000e+00  -1.7533830948028604e-02 1.2361338198221617e-02 0.0000000000000000e+00  -1.9420350373405684e-02 1.3138080354927442e-02 0.0000000000000000e+00  -1.6868158706488192e-02 1.1009535286490521e-02 0.0000000000000000e+00  -2.3295291242842554e-02 1.4628254783758912e-02 0.0000000000000000e+00  -1.6499698287951718e-02 1.0071558768696887e-02 0.0000000000000000e+00  -1.9485317538709589e-02 1.1441658115559720e-02 0.0000000000000000e+00  -1.8686653187488519e-02 1.0548189041267350e-02 0.0000000000000000e+00  -1.7172785183448790e-02 9.3877621458849664e-03 0.0000000000000000e+00  -2.4836571878854085e-02 1.3210541960352646e-02 0.0000000000000000e+00  -1.5758147451173866e-02 8.0261759453913711e-03 0.0000000000000000e+00  -2.7072768237996432e-02 1.3237027188051255e-02 0.0000000000000000e+00  -1.8770088305844458e-02 8.8552221218680897e-03 0.0000000000000000e+00  -1.8398328936066598e-02 8.3136929948524393e-03 0.0000000000000000e+00  -2.7173332225768034e-02 1.1846246423131175e-02 0.0000000000000000e+00  -1.8003985412739797e-02 7.5243507779498764e-03 0.0000000000000000e+00  -2.8727004198146257e-02 1.1463871681191505e-02 0.0000000000000000e+00  -1.9164977577525291e-02 7.3719482592522695e-03 0.0000000000000000e+00  -2.2338001094391401e-02 8.2225264516082603e-03 0.0000000000000000e+00  -2.4016128325282094e-02 8.4006281143908929e-03 0.0000000000000000e+00  -2.1881684903435235e-02 7.3056872228782245e-03 0.0000000000000000e+00  -2.2255948720240816e-02 7.0842540483187612e-03 0.0000000000000000e+00  -2.4648011056417684e-02 7.4478920282199075e-03 0.0000000000000000e+00  -2.3040173263894327e-02 6.6335975464290892e-03 0.0000000000000000e+00  -2.3671052388294249e-02 6.5021066999099214e-03 0.0000000000000000e+00  -2.5197671810598062e-02 6.5412727829847602e-03 0.0000000000000000e+00  -2.4094229639341318e-02 5.9222607188761335e-03 0.0000000000000000e+00  -2.4013971042544813e-02 5.5508223284313598e-03 0.0000000000000000e+00  -2.5257637572558882e-02 5.4440448022464094e-03 0.0000000000000000e+00  -2.1733630599640310e-02 4.3822901516774072e-03 0.0000000000000000e+00  -3.1099879133570662e-02 5.8574717870771408e-03 0.0000000000000000e+00  -2.1475620980512644e-02 3.7796417829010906e-03 0.0000000000000000e+00  -2.5588172342665211e-02 4.1366699268171178e-03 0.0000000000000000e+00  -2.4742682766031445e-02 3.6410424090459258e-03 0.0000000000000000e+00  -2.2326568127191818e-02 2.9946302216093883e-03 0.0000000000000000e+00  -3.1684184351549086e-02 3.8691823767414229e-03 0.0000000000000000e+00  -2.2917734885371657e-02 2.4554580889346663e-03 0.0000000000000000e+00  -2.2887555657062100e-02 2.1274403391731049e-03 0.0000000000000000e+00  -3.2060644381379774e-02 2.5622926130601559e-03 0.0000000000000000e+00  -2.3057206273168554e-02 1.5152066438918865e-03 0.0000000000000000e+00  -2.4464923089519003e-02 1.2883629590564707e-03 0.0000000000000000e+00  -2.5204688902544070e-02 9.8726080703433259e-04 0.0000000000000000e+00  -2.5881765329290561e-02 6.4776048572736094e-04 0.0000000000000000e+00  -2.5358649608002774e-02 2.9116571841216404e-04 0.0000000000000000e+00  -2.5440360219322493e-02 -5.7845989650149569e-05 0.0000000000000000e+00  -2.6360953227543733e-02 -4.0804346959743101e-04 0.0000000000000000e+00  -2.3352905026400844e-02 -6.7266515955441398e-04 0.0000000000000000e+00  -3.2746587967742033e-02 -1.3562188738764260e-03 0.0000000000000000e+00  -2.3466134300820129e-02 -1.2607685292045415e-03 0.0000000000000000e+00  -2.4044731553888914e-02 -1.6005086855821644e-03 0.0000000000000000e+00  -3.3430688292097950e-02 -2.6109473428779276e-03 0.0000000000000000e+00  -2.1234281568131827e-02 -1.9274904905044513e-03 0.0000000000000000e+00  -3.3280849923971428e-02 -3.4047447794460059e-03 0.0000000000000000e+00  -2.3801332152310842e-02 -2.7459390596652122e-03 0.0000000000000000e+00  -2.4952817721281498e-02 -3.1996630639808000e-03 0.0000000000000000e+00  -2.5152008016731647e-02 -3.5223606810251109e-03 0.0000000000000000e+00  -2.6130989881819860e-02 -4.0203826150869626e-03 0.0000000000000000e+00  -2.4467762664049621e-02 -4.1155020959871740e-03 0.0000000000000000e+00  -2.3472759589078622e-02 -4.3160113121045261e-03 0.0000000000000000e+00  -3.3073088865425343e-02 -6.4946129141108698e-03 0.0000000000000000e+00  -2.4682991851046887e-02 -5.2609134546400252e-03 0.0000000000000000e+00  -2.4282303500879888e-02 -5.5957266925967981e-03 0.0000000000000000e+00  -2.4297748220108235e-02 -5.9354614485676339e-03 0.0000000000000000e+00  -2.4676306430568423e-02 -6.3832503986875630e-03 0.0000000000000000e+00  -2.4323818980647331e-02 -6.7277321624846700e-03 0.0000000000000000e+00  -2.4429889641521926e-02 -7.1227391668734121e-03 0.0000000000000000e+00  -2.5028605696323380e-02 -7.6460321611937646e-03 0.0000000000000000e+00  -2.2356458932667321e-02 -7.2162667643434113e-03 0.0000000000000000e+00  -3.0833255609718464e-02 -1.0465862411992618e-02 0.0000000000000000e+00  -2.0538115744105762e-02 -7.2914811329554468e-03 0.0000000000000000e+00  -2.2084968440590321e-02 -8.2280572727275372e-03 0.0000000000000000e+00  -3.0708327699645717e-02 -1.1807233518312645e-02 0.0000000000000000e+00  -2.1502019853396340e-02 -8.6805944008653546e-03 0.0000000000000000e+00  -3.0322862165677405e-02 -1.2670341513769888e-02 0.0000000000000000e+00  -2.1450911876081537e-02 -9.3514996247722627e-03 0.0000000000000000e+00  -1.9794934123637122e-02 -9.0390211745132298e-03 0.0000000000000000e+00  -2.1348138342564472e-02 -1.0085144038220192e-02 0.0000000000000000e+00  -2.3136816038080602e-02 -1.1318218346395735e-02 0.0000000000000000e+00  -2.2413861690845891e-02 -1.1384392297580558e-02 0.0000000000000000e+00  -1.9447150790129895e-02 -1.0297258422139162e-02 0.0000000000000000e+00  -2.6645116189557158e-02 -1.4613196672678840e-02 0.0000000000000000e+00  -1.9433239164898978e-02 -1.1079255078269427e-02 0.0000000000000000e+00  -1.9774146403891909e-02 -1.1754844722673082e-02 0.0000000000000000e+00  -2.0009466377429834e-02 -1.2279840057562122e-02 0.0000000000000000e+00  -1.8880800182216762e-02 -1.2059060408933725e-02 0.0000000000000000e+00  -1.9146593414060685e-02 -1.2737546269363458e-02 0.0000000000000000e+00  -2.0419913401547723e-02 -1.4046790988929003e-02 0.0000000000000000e+00  -1.9778221787386946e-02 -1.4200630720091095e-02 0.0000000000000000e+00  -1.8913233426303199e-02 -1.4140470065464126e-02 0.0000000000000000e+00  -1.8133338059579226e-02 -1.4121616194374241e-02 0.0000000000000000e+00  -1.8856342531396172e-02 -1.5227131202003693e-02 0.0000000000000000e+00  -1.7047288926387551e-02 -1.4378323758462290e-02 0.0000000000000000e+00  -1.6264995367260983e-02 -1.4310692386975195e-02 0.0000000000000000e+00  -1.8168757192556857e-02 -1.6605712166289040e-02 0.0000000000000000e+00  -1.6008600740050481e-02 -1.5300042380328375e-02 0.0000000000000000e+00  -1.5648077198914173e-02 -1.5508535054297874e-02 0.0000000000000000e+00  -1.6303238849470682e-02 -1.6809566878332682e-02 0.0000000000000000e+00  -1.4795927757768579e-02 -1.5880505459954099e-02 0.0000000000000000e+00  -1.4060833233170615e-02 -1.5770834175615905e-02 0.0000000000000000e+00  -1.8883496804294398e-02 -2.1991571893314493e-02 0.0000000000000000e+00  -1.2568504301955819e-02 -1.5277563966059919e-02 0.0000000000000000e+00  -1.2921029374420356e-02 -1.6524051888325082e-02 0.0000000000000000e+00  -1.3483579097122500e-02 -1.8001699482470282e-02 0.0000000000000000e+00  -1.2022695753315283e-02 -1.6888119341663843e-02 0.0000000000000000e+00  -1.1323699604607593e-02 -1.6718112393214472e-02 0.0000000000000000e+00  -1.2390066052565225e-02 -1.9233288706652550e-02 0.0000000000000000e+00  -1.0703293384036056e-02 -1.7631883425142245e-02 0.0000000000000000e+00  -1.0276476595797843e-02 -1.7806678905215801e-02 0.0000000000000000e+00  -1.0433173991483533e-02 -1.9164300361839536e-02 0.0000000000000000e+00  -9.2521622497525862e-03 -1.8014846651356452e-02 0.0000000000000000e+00  -8.4315420262406297e-03 -1.7477376544483655e-02 0.0000000000000000e+00  -1.1045570400463185e-02 -2.4281729464442337e-02 0.0000000000000000e+00  -7.0961560430505954e-03 -1.6623087566399301e-02 0.0000000000000000e+00  -7.1720364624961374e-03 -1.8212061760881301e-02 0.0000000000000000e+00  -7.2332226461086641e-03 -1.9783547464181424e-02 0.0000000000000000e+00  -6.1562755188373230e-03 -1.8401301810113201e-02 0.0000000000000000e+00  -5.5279856642383059e-03 -1.8066637760211137e-02 0.0000000000000000e+00  -5.7429087080601380e-03 -2.0686830211773741e-02 0.0000000000000000e+00  -4.6459005352995431e-03 -1.8786832843828923e-02 0.0000000000000000e+00  -4.2112776854653765e-03 -1.8946900652094006e-02 0.0000000000000000e+00  -3.9228124359381783e-03 -2.0281101627048936e-02 0.0000000000000000e+00  -3.1461609538481136e-03 -1.8848575801633471e-02 0.0000000000000000e+00  -2.5594060091941816e-03 -1.8512089947480732e-02 0.0000000000000000e+00  -2.8755739470324882e-03 -2.5625360424401358e-02 0.0000000000000000e+00  -1.5469047436320177e-03 -1.7700489905042378e-02 0.0000000000000000e+00  -1.0701402037548275e-03 -1.8867592502884199e-02 0.0000000000000000e+00  -6.2660902775328240e-04 -2.0386854078640264e-02 0.0000000000000000e+00  -4.0289145488017487e-05 -1.9067067298042324e-02 0.0000000000000000e+00  4.6588969311630793e-04 -1.8536612878944002e-02 0.0000000000000000e+00  1.1329479088746991e-03 -2.1249262397040107e-02 0.0000000000000000e+00  1.5774169388754005e-03 -1.9146156451318955e-02 0.0000000000000000e+00  2.0661593912251362e-03 -1.9221046618406682e-02 0.0000000000000000e+00  2.8122586448196740e-03 -2.0491657167956787e-02 0.0000000000000000e+00  3.1082427613952513e-03 -1.8978478700943706e-02 0.0000000000000000e+00  3.4784343985146196e-03 -1.8059451741271701e-02 0.0000000000000000e+00  5.5765809923941020e-03 -2.5247806787914495e-02 0.0000000000000000e+00  4.2509148744537895e-03 -1.7299921885426249e-02 0.0000000000000000e+00  5.1443880956272411e-03 -1.8598304296428742e-02 0.0000000000000000e+00  6.1019310120766007e-03 -2.0038484635375976e-02 0.0000000000000000e+00  6.2091414515699876e-03 -1.8561974755647512e-02 0.0000000000000000e+00  6.5599022707982417e-03 -1.8051332299748490e-02 0.0000000000000000e+00  8.1538536618739697e-03 -2.0671072753547882e-02 0.0000000000000000e+00  7.1909037677016195e-03 -1.6861088230461594e-02 0.0000000000000000e+00  1.0614455569415876e-02 -2.3386451382284065e-02 0.0000000000000000e+00  8.1310383759641142e-03 -1.6763714091354926e-02 0.0000000000000000e+00  9.2332955361325315e-03 -1.7923983110814543e-02 0.0000000000000000e+00  9.8521953669105915e-03 -1.7981552982639336e-02 0.0000000000000000e+00  1.1031662732934199e-02 -1.8952659598854275e-02 0.0000000000000000e+00  1.0117064616371730e-02 -1.6492751541783032e-02 0.0000000000000000e+00  1.4350445791394046e-02 -2.2219014320284818e-02 0.0000000000000000e+00  1.0977589223004184e-02 -1.6238164894809014e-02 0.0000000000000000e+00  1.1789910498013485e-02 -1.6593336101824417e-02 0.0000000000000000e+00  1.2416836311621087e-02 -1.6761206065894315e-02 0.0000000000000000e+00  1.3305881036376454e-02 -1.7066942637456523e-02 0.0000000000000000e+00  1.3405308432449902e-02 -1.6467564977744421e-02 0.0000000000000000e+00  1.3354004853252307e-02 -1.5796887277208415e-02 0.0000000000000000e+00  1.4477560057118722e-02 -1.6191612613702954e-02 0.0000000000000000e+00  1.4684333396917080e-02 -1.5870167274396017e-02 0.0000000000000000e+00  1.5288569696611791e-02 -1.5864437820773767e-02 0.0000000000000000e+00  1.6291030658083051e-02 -1.6114211082443791e-02 0.0000000000000000e+00  1.4981476079933043e-02 -1.4256879904766743e-02 0.0000000000000000e+00  2.0995247143105866e-02 -1.9190032388740522e-02 0.0000000000000000e+00  1.5857670910902070e-02 -1.3942692227684317e-02 0.0000000000000000e+00  1.6774693815564404e-02 -1.4186093281593678e-02 0.0000000000000000e+00  1.7133293127024579e-02 -1.3983316666174543e-02 0.0000000000000000e+00  1.8163334344718784e-02 -1.4141938353325802e-02 0.0000000000000000e+00  1.7994257214689263e-02 -1.3529489294023896e-02 0.0000000000000000e+00  1.7850222449636164e-02 -1.2989290249713724e-02 0.0000000000000000e+00  1.9201740997304744e-02 -1.3348384168075307e-02 0.0000000000000000e+00  1.9799583079647676e-02 -1.3366444640306847e-02 0.0000000000000000e+00  1.9488861242125347e-02 -1.2623497373228492e-02 0.0000000000000000e+00  2.1245380702852406e-02 -1.3197164410314446e-02 0.0000000000000000e+00  1.9528882870728202e-02 -1.1717843175332018e-02 0.0000000000000000e+00  2.6430482971244590e-02 -1.5335239791138442e-02 0.0000000000000000e+00  1.9927485169103896e-02 -1.1184077547413643e-02 0.0000000000000000e+00  2.0897315596459638e-02 -1.1275143269838851e-02 0.0000000000000000e+00  2.1433369039293847e-02 -1.1151430199331352e-02 0.0000000000000000e+00  2.3124922175433903e-02 -1.1536444557471262e-02 0.0000000000000000e+00  2.2477973233252804e-02 -1.0855007718961990e-02 0.0000000000000000e+00  2.0054429835570525e-02 -9.3424206527544847e-03 0.0000000000000000e+00  2.9742982118236651e-02 -1.3214697299072610e-02 0.0000000000000000e+00  2.0122241226274051e-02 -8.6432228817475958e-03 0.0000000000000000e+00  2.2831326639978753e-02 -9.3525617883439775e-03 0.0000000000000000e+00  2.4228276481516500e-02 -9.4482865747328015e-03 0.0000000000000000e+00  2.2160159045323948e-02 -8.2641284701001679e-03 0.0000000000000000e+00  3.0202118235848938e-02 -1.0757185533626076e-02 0.0000000000000000e+00  2.2581234034432834e-02 -7.6562375704269190e-03 0.0000000000000000e+00  2.2801644707404388e-02 -7.3065233851161851e-03 0.0000000000000000e+00  2.3833549548892396e-02 -7.2349158700638532e-03 0.0000000000000000e+00  2.6120551089804180e-02 -7.4723294853832117e-03 0.0000000000000000e+00  2.4354579500319624e-02 -6.6298386647421336e-03 0.0000000000000000e+00  2.5170039169662289e-02 -6.5108566442017794e-03 0.0000000000000000e+00  2.6376202658111594e-02 -6.4009277280025270e-03 0.0000000000000000e+00  2.5196825581711293e-02 -5.7639621786260628e-03 0.0000000000000000e+00  2.2830853664135127e-02 -4.8675884310407274e-03 0.0000000000000000e+00  3.3521201816729920e-02 -6.6133985402101088e-03 0.0000000000000000e+00  2.1869389911770554e-02 -4.0083077806981442e-03 0.0000000000000000e+00  3.2823967507684716e-02 -5.5326368768647263e-03 0.0000000000000000e+00  2.3667433646311617e-02 -3.6575513701916041e-03 0.0000000000000000e+00  2.3140449167150655e-02 -3.2492087872671529e-03 0.0000000000000000e+00  3.2605245265894527e-02 -4.1822528083810609e-03 0.0000000000000000e+00  2.3566029050730148e-02 -2.7272996079982163e-03 0.0000000000000000e+00  2.5019948758268802e-02 -2.5760170021630270e-03 0.0000000000000000e+00  2.5866818882503452e-02 -2.3098018110416117e-03 0.0000000000000000e+00  2.6558747866829935e-02 -1.9720475527996778e-03 0.0000000000000000e+00  2.6079861455332035e-02 -1.5844471098450694e-03 0.0000000000000000e+00  2.5980497474740058e-02 -1.2151467947480756e-03 0.0000000000000000e+00  2.6773781618527118e-02 -8.6974410730344335e-04 0.0000000000000000e+00  2.3327775380413727e-02 -4.4950805817195726e-04 0.0000000000000000e+00  3.3232250491942936e-02 -1.8344564548217676e-04 0.0000000000000000e+00  1.9925151632112326e-02 1.4066708664938144e-04 0.0000000000000000e+00  3.3335239820011284e-02 7.2753354717952623e-04 0.0000000000000000e+00  2.2604032621842969e-02 7.8072406845579518e-04 0.0000000000000000e+00  2.6371788239598647e-02 1.2871258965219863e-03 0.0000000000000000e+00  2.6034013575014878e-02 1.6356844942464596e-03 0.0000000000000000e+00  2.4247730433908325e-02 1.8322918802076925e-03 0.0000000000000000e+00  2.6691059294535146e-02 2.3519227930199212e-03 0.0000000000000000e+00  2.4141686598531338e-02 2.4344213053011004e-03 0.0000000000000000e+00  2.2504843213856613e-02 2.5315727317982749e-03 0.0000000000000000e+00  3.2532124130558601e-02 3.9965235892286139e-03 0.0000000000000000e+00  2.4221169984747583e-02 3.2914538629390316e-03 0.0000000000000000e+00  2.3901491945581391e-02 3.5621688780367875e-03 0.0000000000000000e+00  2.4718856812100919e-02 3.9921196407566948e-03 0.0000000000000000e+00  2.5881980439174782e-02 4.5094271597268991e-03 0.0000000000000000e+00  2.3586968844551134e-02 4.4208688119188712e-03 0.0000000000000000e+00  2.3422687220578556e-02 4.7049190799093518e-03 0.0000000000000000e+00  2.3365615920793757e-02 4.9927391859224879e-03 0.0000000000000000e+00  2.3801436725247840e-02 5.4059667243085184e-03 0.0000000000000000e+00  2.4722047028471385e-02 5.9122077400790961e-03 0.0000000000000000e+00  2.4906675682571270e-02 6.3189356195658087e-03 0.0000000000000000e+00  2.1507868774675146e-02 5.7929197744186773e-03 0.0000000000000000e+00  3.0217357204