<?xml version="1.0"?>
<VTKFile type="UnstructuredGrid"  version="0.1"  >
<UnstructuredGrid>
<Piece  NumberOfPoints="4272" NumberOfCells="6760">
<Points>
<DataArray  type="Float64"  NumberOfComponents="3"  format="ascii">0 0.01 0  10 0.01 0  0 1.02244766404895 0  10 1.02244766404895 0  0.007129524987038337 0.009997491741717768 0  0.01258064459049757 0.00999219056738478 0  0.01872173241756402 0.009982708334120727 0  0.02429919625640796 0.009970876572043954 0  0.03017238705920286 0.009955108531615313 0  0.03612352734296466 0.0099356743715591 0  0.04164979236492252 0.009914517792428084 0  0.04780928449023854 0.009887415768096998 0  0.05327287671237849 0.009860276931383746 0  0.0593436395885565 0.009826715421083503 0  0.06505608699933001 0.009791870631895848 0  0.07077243060783153 0.009753845329312128 0  0.07684085351634186 0.009710036052663748 0  0.08230528612367993 0.009667566921662384 0  0.08846525752759338 0.009616276826848907 0  0.09398926586603956 0.0095672187064786 0  0.09994377871281757 0.009511110804477986 0  0.10581288515308 0.009452550633355501 0  0.1113930001121819 0.009393893683773193 0  0.1175326299024069 0.009326020378011352 0  0.122983161250664 0.009262856809916281 0  0.1290978349347763 0.009188765415777931 0  0.1347300222736412 0.00911751981665075 0  0.1405327472005438 0.009041131768776852 0  0.1465421455697866 0.008958856277281909 0  0.1520341809431761 0.008880870879718691 0  0.1581991754706344 0.00879018143976357 0  0.1636834803794234 0.008706732874359017 0  0.1697073563005918 0.008612096527554045 0  0.1754901396361989 0.008518345936558386 0  0.1811391035120075 0.008424050210098115 0  0.1872444279222087 0.00831915423323064 0  0.1926961446341008 0.008222899998379215 0  0.198841090009393 0.008111516418624823 0  0.2044064770158165 0.008008028244452866 0  0.2102948627703611 0.007895869216798803 0  0.2162299794791283 0.007780085801116003 0  0.2217647046821167 0.007669675498109103 0  0.2279204403470532 0.007544154739747676 0  0.2333791472114919 0.007430485124751003 0  0.2394590817234977 0.0073013084386626 0  0.245152498789355 0.007177928079207972 0  0.2508861115607116 0.007051356111670669 0  0.2569419868439766 0.006915186417023598 0  0.2624099649457279 0.006790084113692359 0  0.2685711825796066 0.006646722567663751 0  0.274083748205357 0.006516341894728842 0  0.2800541704182985 0.00637292855786236 0  0.2859022845836161 0.006230279166502627 0  0.291495955429921 0.006091868246150131 0  0.2976275706217687 0.005937986548763313 0  0.3030757324287757 0.005799406374294222 0  0.3091980118239236 0.005641654227187252 0  0.3148109405089491 0.005495191514879527 0  0.3206341933715942 0.005341435282378838 0  0.3266248575896781 0.005181393525330103 0  0.3321252080346692 0.005032833254881577 0  0.3382880718234609 0.004864596209960478 0  0.3437628463580178 0.004713611578807419 0  0.3498021006600692 0.004545443593512952 0  0.3555594631656461 0.004383601001460968 0  0.3612291099056053 0.004222822711549606 0  0.3673210805066339 0.004048576418709386 0  0.3727746135437823 0.003891330909934085 0  0.3789246700786391 0.003712634483246944 0  0.3844721023230384 0.00355025746928806 0  0.3903845048135511 0.003376011435332509 0  0.3962935688476314 0.003200699755406988 0  0.4018430601204535 0.00303505085978487 0  0.4079921977692303 0.002850427660455144 0  0.4134449905916002 0.002685819499171436 0  0.4195385366679084 0.002500937932218923 0  0.425204482428441 0.002328206591247292 0  0.4309651825948974 0.00215183074136113 0  0.4370014133195289 0.001966263547608745 0  0.4424769325836848 0.00179732019881714 0  0.4486395183564056 0.001606544730410899 0  0.4541373275735043 0.001435838569361521 0  0.4601308451156257 0.001249254088784412 0  0.4659488863550298 0.001067707976620331 0  0.471564807260988 0.0008921302908496037 0  0.4776843759254726 0.0007004920228137959 0  0.4831317484445766 0.0005296836585198918 0  0.4892643513384632 0.0003372062279158936 0  0.4948528283485032 0.000161696161435303 0  0.5007056813361916 -2.216943068070812e-05 0  0.5066699093509902 -0.000209526046556915 0  0.5121845298566023 -0.0003826949545447442 0  0.5183439831944545 -0.0005759742926309219 0  0.5238088617282698 -0.0007472800272428554 0  0.5298681543527348 -0.0009369594486414562 0  0.5355929349139432 -0.001115856450691032 0  0.5412927239341832 -0.001293613669039852 0  0.5473668732672543 -0.001482588207084091 0  0.5528259073001393 -0.001651967505962102 0  0.5589819336317072 -0.001842386787779294 0  0.5645100189486582 -0.002012797049529044 0  0.5704524332663232 -0.002195301346534757 0  0.5763298911552834 -0.002375058665203144 0  0.5819006708717119 -0.002544689651648297 0  0.5880413281562127 -0.002730768313747055 0  0.5934904284812221 -0.002895042191696308 0  0.5995995320960693 -0.003078202338538874 0  0.605236779888003 -0.003246210954182579 0  0.6110299855290301 -0.003417806240976177 0  0.6170432999212266 -0.00359472323302265 0  0.6225307972792151 -0.00375505261922207 0  0.6286944373476531 -0.003933803567825084 0  0.6341794289295242 -0.004091634709336539 0  0.6401977648984302 -0.004263413669385436 0  0.6459846030577213 -0.004427148756161272 0  0.6516277670629291 -0.004585409549508515 0  0.6577342305863492 -0.004755038487876419 0  0.6631843111407589 -0.004904958327357115 0  0.6693271588517591 -0.005072208653571043 0  0.6748942591145469 -0.005222152905474348 0  0.6807781354428797 -0.005378892074409919 0  0.6867158102497221 -0.005535201343768038 0  0.6922478556369909 -0.005679100421160843 0  0.6984036264198542 -0.005837205328254034 0  0.7038624132928571 -0.005975584427524931 0  0.7099402809449575 -0.006127588021236129 0  0.7156361945945205 -0.006268012368771779 0  0.7213667017809595 -0.006407263887957157 0  0.7274241898103784 -0.006552202568912044 0  0.7328913375361901 -0.006680980644346233 0  0.7390522654079078 -0.006823736587757829 0  0.7445663161830813 -0.006949337256267011 0  0.7505345306161221 -0.007082931996795786 0  0.7563856967966242 -0.007211490056377221 0  0.7619775509571868 -0.007332073958440476 0  0.7681106054434813 -0.007461725199742056 0  0.7735594228940573 -0.007574589702563127 0  0.7796809699364847 -0.007698739982391196 0  0.7852974086111042 -0.007810142587226769 0  0.7911178568436495 -0.007923025648348906 0  0.797112403703894 -0.008036515862006795 0  0.8026119630288198 -0.008138129173272899 0  0.8087760180262171 -0.008249131188213875 0  0.814253500572072 -0.008345174877796967 0  0.8202905515677629 -0.008448166667805387 0  0.8260544286221699 -0.008543663134562481 0  0.831720415905675 -0.008634807324656511 0  0.8378167080097026 -0.008729817306667463 0  0.8432709709919499 -0.008812108559864256 0  0.8494209576248264 -0.008901791974276371 0  0.8549745826348545 -0.008979924427376591 0  0.8608814329347291 -0.009060026011188804 0  0.8667998142885592 -0.009137155111096256 0  0.8723460990452367 -0.009206568509458774 0  0.8784989383774584 -0.009280301817794542 0  0.8839552890388401 -0.009342788637451834 0  0.8900456692707091 -0.009409293585850673 0  0.8957233874467343 -0.009468190513990782 0  0.9014754209053449 -0.009524786393944277 0  0.9075213579987256 -0.009580921173179099 0  0.9129954731058688 -0.009628765913494807 0  0.9191593188847452 -0.009679229788646495 0  0.9246655330424429 -0.009721240864333262 0  0.9306503084472221 -0.009763603884533442 0  0.9364847200361547 -0.009801580348484516 0  0.9420914259676206 -0.009834972127394636 0  0.948219177636862 -0.009867976960504428 0  0.9536688877131657 -0.009894257783109666 0  0.9597979104438458 -0.009920349306153329 0  0.9654020314719589 -0.009940987600901847 0  0.9712398170272581 -0.009959209624459757 0  0.9772219132298864 -0.009974407121723252 0  0.9827297975109929 -0.009985285083248089 0  0.9888934840407251 -0.009993913310034224 0  0.9943667421923366 -0.009998434045983932 0  1.000414962337846 -0.009999991502249178 0  1.00616395254491 -0.009998125110441144 0  1.011844857354635 -0.009993077234903055 0  1.017933801412069 -0.009984132829796667 0  1.023390946643176 -0.00997301205183276 0  1.029544679732296 -0.009956955598792184 0  1.035089558108845 -0.009939300412459717 0  1.041010936359372 -0.009917116481575694 0  1.04691554237944 -0.00989157814857561 0  1.052471258615448 -0.009864440751261633 0  1.05862104751389 -0.009830897850136421 0  1.064075481579663 -0.009798076706746352 0  1.070173358231585 -0.009757978136698224 0  1.075837941143087 -0.00971752009646258 0  1.081604377355612 -0.009673173917302162 0  1.087640686528322 -0.009623351755525641 0  1.093119387704205 -0.009575135453199036 0  1.099284093826516 -0.009517491101966447 0  1.104783734376909 -0.009463052176492596 0  1.110779897618174 -0.009400480030121557 0  1.116599992234411 -0.00933655469875222 0  1.122217899723542 -0.009271889359757672 0  1.128339818747432 -0.009198135031144493 0  1.133789446190431 -0.00912961705214143 0  1.139923317158062 -0.009049295973540348 0  1.145515844317945 -0.008973134373133167 0  1.151367773813766 -0.008890475161473248 0  1.157336906671575 -0.008803064948780913 0  1.16285160438384 -0.008719557366803981 0  1.16901331600552 -0.008623157866544266 0  1.174481522907442 -0.00853490108265173 0  1.180539122189597 -0.008434191931863186 0  1.186271617394136 -0.008336073959344166 0  1.191966996821913 -0.008235914041393521 0  1.198046448076202 -0.008126091334838595 0  1.203505695906331 -0.008024945109277802 0  1.209661806077474 -0.007908057515838151 0  1.21519584913737 -0.007800455577732041 0  1.221132109188887 -0.00768241304184519 0  1.227019087412133 -0.007562711583992629 0  1.232585135446325 -0.007447155722966398 0  1.238729389023077 -0.007316953404904543 0  1.244180486899644 -0.007199156086382225 0  1.250286093435722 -0.007064709646262071 0  1.255932842016573 -0.006938052500145445 0  1.261716857103797 -0.006806053534187844 0  1.26773845151126 -0.006666245775332091 0  1.273222687278595 -0.006536836953056475 0  1.279386853652711 -0.00638906998029936 0  1.284876650734994 -0.006255450389977176 0  1.290887326898431 -0.00610702037198264 0  1.296685536664392 -0.00596177282270944 0  1.30231949087952 -0.005818744638503708 0  1.308431215520824 -
[...]
<PointData  Vectors="Traction"> 
<DataArray  type="Float64"  Name="Traction"  NumberOfComponents="3" format="ascii">2.1963752413488748e-06 1.1188785983324663e-02 0.0000000000000000e+00  2.1963752413488748e-06 1.1188785983324663e-02 0.0000000000000000e+00  -7.3254468697065148e-09 -1.4217454517781022e-09 0.0000000000000000e+00  -7.3254468697065148e-09 -1.4217454517781022e-09 0.0000000000000000e+00  -6.3610253699642675e-04 1.9575997190364080e-02 0.0000000000000000e+00  -9.6519561391375584e-04 1.7669351419299893e-02 0.0000000000000000e+00  -1.3055415847735719e-03 1.6382702477661038e-02 0.0000000000000000e+00  -1.8430458715673226e-03 1.8088951431198264e-02 0.0000000000000000e+00  -1.9700639094758681e-03 1.5551755886392850e-02 0.0000000000000000e+00  -3.1887625308489997e-03 2.1175145457547444e-02 0.0000000000000000e+00  -2.3904142267529333e-03 1.3852180110298576e-02 0.0000000000000000e+00  -3.2414929248003013e-03 1.6253433014539836e-02 0.0000000000000000e+00  -3.8723330720822811e-03 1.7264579016949503e-02 0.0000000000000000e+00  -3.6141764711361936e-03 1.4384790028971254e-02 0.0000000000000000e+00  -5.6664708922663709e-03 2.0649868819786161e-02 0.0000000000000000e+00  -4.0025741428064386e-03 1.3463608494681364e-02 0.0000000000000000e+00  -6.8939051067897954e-03 2.1084315621893467e-02 0.0000000000000000e+00  -4.7959993087633270e-03 1.3764890229716583e-02 0.0000000000000000e+00  -5.9249135993943037e-03 1.5760382270822930e-02 0.0000000000000000e+00  -7.0696925898105284e-03 1.7464949974196887e-02 0.0000000000000000e+00  -6.5629273573414686e-03 1.5196208211556829e-02 0.0000000000000000e+00  -7.1126654749773741e-03 1.5466075259120790e-02 0.0000000000000000e+00  -8.0997216245830075e-03 1.6615331463797272e-02 0.0000000000000000e+00  -8.5120393450172031e-03 1.6462257530352610e-02 0.0000000000000000e+00  -8.2675707656338655e-03 1.5293019643847036e-02 0.0000000000000000e+00  -8.6416468875888785e-03 1.5191253332428042e-02 0.0000000000000000e+00  -9.1002064277816291e-03 1.5227813545769844e-02 0.0000000000000000e+00  -8.9346901253114681e-03 1.4249635934639748e-02 0.0000000000000000e+00  -1.2845214626995831e-02 1.9428313949472087e-02 0.0000000000000000e+00  -9.8601641187373561e-03 1.4432273193174540e-02 0.0000000000000000e+00  -1.0484184686263236e-02 1.4738194054375526e-02 0.0000000000000000e+00  -9.7967817013420635e-03 1.3263652518506218e-02 0.0000000000000000e+00  -1.0465167971366263e-02 1.3491238801375555e-02 0.0000000000000000e+00  -1.5230606663405614e-02 1.8697022211401234e-02 0.0000000000000000e+00  -1.1027325320106748e-02 1.3162253380757391e-02 0.0000000000000000e+00  -1.1307557300330924e-02 1.2926293304984779e-02 0.0000000000000000e+00  -1.6920222709158831e-02 1.8530853969182120e-02 0.0000000000000000e+00  -1.0828631886751332e-02 1.1486188947808073e-02 0.0000000000000000e+00  -1.7509652757292580e-02 1.7882688653123292e-02 0.0000000000000000e+00  -1.0641097299047161e-02 1.0475335182706191e-02 0.0000000000000000e+00  -1.8304456411071649e-02 1.7361868874793109e-02 0.0000000000000000e+00  -1.3039675733204043e-02 1.1950134248994987e-02 0.0000000000000000e+00  -1.3535011237455605e-02 1.1927511739275464e-02 0.0000000000000000e+00  -1.9534809733096653e-02 1.6570819609683551e-02 0.0000000000000000e+00  -1.1921365234884585e-02 9.7830240596748184e-03 0.0000000000000000e+00  -2.0519682420236589e-02 1.6214738344141888e-02 0.0000000000000000e+00  -1.3989038138905360e-02 1.0708675148870937e-02 0.0000000000000000e+00  -2.2176990576709275e-02 1.6364560526654637e-02 0.0000000000000000e+00  -1.4951200758356735e-02 1.0757619106599146e-02 0.0000000000000000e+00  -1.7215647395461553e-02 1.1918579059190965e-02 0.0000000000000000e+00  -1.9046298638553040e-02 1.2652896455898430e-02 0.0000000000000000e+00  -1.6556429853094384e-02 1.0613976223028950e-02 0.0000000000000000e+00  -2.2865348127266295e-02 1.4107027130145028e-02 0.0000000000000000e+00  -1.6195708292443795e-02 9.7153790272429749e-03 0.0000000000000000e+00  -1.9127218151263049e-02 1.1041731514213868e-02 0.0000000000000000e+00  -1.8402505332971830e-02 1.0213704174981868e-02 0.0000000000000000e+00  -1.6775833498564405e-02 9.0197602909976166e-03 0.0000000000000000e+00  -2.4404583634166695e-02 1.2774804223919165e-02 0.0000000000000000e+00  -1.5446813931698057e-02 7.7428882199225470e-03 0.0000000000000000e+00  -2.6582844475944462e-02 1.2791941471290100e-02 0.0000000000000000e+00  -1.8408660821436020e-02 8.5482545522679535e-03 0.0000000000000000e+00  -1.8105865442946283e-02 8.0550895347744483e-03 0.0000000000000000e+00  -2.6693338246281031e-02 1.1461009234305028e-02 0.0000000000000000e+00  -1.7625176465432716e-02 7.2551702319147114e-03 0.0000000000000000e+00  -2.8191038427546465e-02 1.1078834485207833e-02 0.0000000000000000e+00  -1.8764908058795125e-02 7.1107654484696414e-03 0.0000000000000000e+00  -2.1922428124295335e-02 7.9523268792637738e-03 0.0000000000000000e+00  -2.3599184863145703e-02 8.1362686538573054e-03 0.0000000000000000e+00  -2.1486551623862097e-02 7.0727842771840356e-03 0.0000000000000000e+00  -2.1856977989788182e-02 6.8611364228296119e-03 0.0000000000000000e+00  -2.4212943886769055e-02 7.2174946764180653e-03 0.0000000000000000e+00  -2.2631640980282516e-02 6.4303960504674242e-03 0.0000000000000000e+00  -2.3251657466883478e-02 6.3055709798410008e-03 0.0000000000000000e+00  -2.4754971262200970e-02 6.3466944080419101e-03 0.0000000000000000e+00  -2.3671494919508543e-02 5.7484113451113684e-03 0.0000000000000000e+00  -2.3593267786368114e-02 5.3900223477023708e-03 0.0000000000000000e+00  -2.4817209403311332e-02 5.2885517417170834e-03 0.0000000000000000e+00  -2.1354220834365542e-02 4.2591209541374729e-03 0.0000000000000000e+00  -3.0557945551464467e-02 5.6965766103349476e-03 0.0000000000000000e+00  -2.1101788816953463e-02 3.6790103768178572e-03 0.0000000000000000e+00  -2.5144086631875451e-02 4.0299061064625486e-03 0.0000000000000000e+00  -2.4315411447301507e-02 3.5504815070218402e-03 0.0000000000000000e+00  -2.1939008970178142e-02 2.9236118813545779e-03 0.0000000000000000e+00  -3.1136878154362706e-02 3.7832254490302994e-03 0.0000000000000000e+00  -2.2518810088909626e-02 2.4042697479541813e-03 0.0000000000000000e+00  -2.2494040636784892e-02 2.0879291218907558e-03 0.0000000000000000e+00  -3.1511235838096445e-02 2.5219111757154447e-03 0.0000000000000000e+00  -2.2662315501373251e-02 1.4975070127092982e-03 0.0000000000000000e+00  -2.4047350017087910e-02 1.2809066287690052e-03 0.0000000000000000e+00  -2.4775855498669869e-02 9.9158142103481514e-04 0.0000000000000000e+00  -2.5444046309948103e-02 6.6471619949182831e-04 0.0000000000000000e+00  -2.4929176636437109e-02 3.1975958816705816e-04 0.0000000000000000e+00  -2.5010821702999030e-02 -1.7496907893878993e-05 0.0000000000000000e+00  -2.5917907152084772e-02 -3.5420964088269183e-04 0.0000000000000000e+00  -2.2960768677480366e-02 -6.1427413979652011e-04 0.0000000000000000e+00  -3.2197592465156424e-02 -1.2600946262612922e-03 0.0000000000000000e+00  -2.3073836894842579e-02 -1.1816898112695206e-03 0.0000000000000000e+00  -2.3643690978837222e-02 -1.5085898658041908e-03 0.0000000000000000e+00  -3.2873918613493251e-02 -2.4684565014659195e-03 0.0000000000000000e+00  -2.0881654322283325e-02 -1.8275369683021119e-03 0.0000000000000000e+00  -3.2728973267659472e-02 -3.2337542806721324e-03 0.0000000000000000e+00  -2.3407709972699486e-02 -2.6126381961012429e-03 0.0000000000000000e+00  -2.4540426657660472e-02 -3.0483903879887759e-03 0.0000000000000000e+00  -2.4737711107607564e-02 -3.3592349710976463e-03 0.0000000000000000e+00  -2.5702160372162684e-02 -3.8384930193014533e-03 0.0000000000000000e+00  -2.4066235818287485e-02 -3.9337143882583227e-03 0.0000000000000000e+00  -2.3088641871491188e-02 -4.1301663165232904e-03 0.0000000000000000e+00  -3.2534069492598384e-02 -6.2193413842729457e-03 0.0000000000000000e+00  -2.4281267887653911e-02 -5.0434673903998698e-03 0.0000000000000000e+00  -2.3886922827283066e-02 -5.3686604528922705e-03 0.0000000000000000e+00  -2.3903218849992660e-02 -5.6975430586917331e-03 0.0000000000000000e+00  -2.4277544743250369e-02 -6.1296899999992152e-03 0.0000000000000000e+00  -2.3929571555825258e-02 -6.4636120476209919e-03 0.0000000000000000e+00  -2.4034766001632468e-02 -6.8454122970642095e-03 0.0000000000000000e+00  -2.4625677967038510e-02 -7.3498621660973828e-03 0.0000000000000000e+00  -2.1996515152602307e-02 -6.9395219595019724e-03 0.0000000000000000e+00  -3.0337092955273797e-02 -1.0066509363540310e-02 0.0000000000000000e+00  -2.0208680953816480e-02 -7.0153992154235820e-03 0.0000000000000000e+00  -2.1731334906545639e-02 -7.9181135473604166e-03 0.0000000000000000e+00  -3.0218397623535457e-02 -1.1362169576956016e-02 0.0000000000000000e+00  -2.1159151184849307e-02 -8.3559885976752027e-03 0.0000000000000000e+00  -2.9840053743817957e-02 -1.2195661189118055e-02 0.0000000000000000e+00  -2.1109035295581405e-02 -9.0028186026645304e-03 0.0000000000000000e+00  -1.9479156414358798e-02 -8.7035983088829278e-03 0.0000000000000000e+00  -2.1008527389744732e-02 -9.7106882139651064e-03 0.0000000000000000e+00  -2.2770021930846186e-02 -1.0898630348081128e-02 0.0000000000000000e+00  -2.2059303502595985e-02 -1.0963354964801711e-02 0.0000000000000000e+00  -1.9139601078405451e-02 -9.9179819766197722e-03 0.0000000000000000e+00  -2.6224017155063353e-02 -1.4074398209034673e-02 0.0000000000000000e+00  -1.9127175250856901e-02 -1.0673214549887303e-02 0.0000000000000000e+00  -1.9462649737577671e-02 -1.1325132819918560e-02 0.0000000000000000e+00  -1.9695833133428965e-02 -1.1832027989848469e-02 0.0000000000000000e+00  -1.8585802901044807e-02 -1.1621280610083029e-02 0.0000000000000000e+00  -1.8847996268412680e-02 -1.2277791999269708e-02 0.0000000000000000e+00  -2.0102952149555868e-02 -1.3541738422132783e-02 0.0000000000000000e+00  -1.9471744081323131e-02 -1.3693170091787376e-02 0.0000000000000000e+00  -1.8620394047301439e-02 -1.3637814194886426e-02 0.0000000000000000e+00  -1.7852947333054169e-02 -1.3621798544299998e-02 0.0000000000000000e+00  -1.8565759612279967e-02 -1.4690189852166207e-02 0.0000000000000000e+00  -1.6784791638365153e-02 -1.3873927247160019e-02 0.0000000000000000e+00  -1.6014660666668658e-02 -1.3810758344177812e-02 0.0000000000000000e+00  -1.7889736883427442e-02 -1.6026808181038559e-02 0.0000000000000000e+00  -1.5762600263943782e-02 -1.4768118230497909e-02 0.0000000000000000e+00  -1.5408120943975175e-02 -1.4969779941288407e-02 0.0000000000000000e+00  -1.6053922525996394e-02 -1.6226535492665863e-02 0.0000000000000000e+00  -1.4570163491640037e-02 -1.5330726438881623e-02 0.0000000000000000e+00  -1.3846873453146533e-02 -1.5226924569125418e-02 0.0000000000000000e+00  -1.8596890508380131e-02 -2.1232700236620428e-02 0.0000000000000000e+00  -1.2378083353528389e-02 -1.4752598561851253e-02 0.0000000000000000e+00  -1.2725486516345254e-02 -1.5957249489373188e-02 0.0000000000000000e+00  -1.3280184839932308e-02 -1.7385117632616992e-02 0.0000000000000000e+00  -1.1841581625670443e-02 -1.6311421798180747e-02 0.0000000000000000e+00  -1.1153428713200375e-02 -1.6148831670188935e-02 0.0000000000000000e+00  -1.2204211347556716e-02 -1.8579806623602740e-02 0.0000000000000000e+00  -1.0542514011548595e-02 -1.7034299625949219e-02 0.0000000000000000e+00  -1.0122525030591540e-02 -1.7203811354670331e-02 0.0000000000000000e+00  -1.0277062733184324e-02 -1.8516136504269334e-02 0.0000000000000000e+00  -9.1139221166887802e-03 -1.7405946602146661e-02 0.0000000000000000e+00  -8.3058738281152639e-03 -1.6887661188875018e-02 0.0000000000000000e+00  -1.0881293663462108e-02 -2.3460326759754978e-02 0.0000000000000000e+00  -6.9909659223908269e-03 -1.6062285702052374e-02 0.0000000000000000e+00  -7.0657355016577597e-03 -1.7598233784016724e-02 0.0000000000000000e+00  -7.1264142464108476e-03 -1.9116954525302883e-02 0.0000000000000000e+00  -6.0654762681012124e-03 -1.7782152085518709e-02 0.0000000000000000e+00  -5.4467380978187136e-03 -1.7459124367957633e-02 0.0000000000000000e+00  -5.6588219309119626e-03 -1.9991288032776548e-02 0.0000000000000000e+00  -4.5778626324840792e-03 -1.8155399366122957e-02 0.0000000000000000e+00  -4.1502803221247836e-03 -1.8310100618604337e-02 0.0000000000000000e+00  -3.8662992907799194e-03 -1.9599637244074812e-02 0.0000000000000000e+00  -3.1013259441739827e-03 -1.8215442831723272e-02 0.0000000000000000e+00  -2.5235906694568901e-03 -1.7891329419687081e-02 0.0000000000000000e+00  -2.8361170024561533e-03 -2.4763864935087167e-02 0.0000000000000000e+00  -1.5265380791025763e-03 -1.7106885317330470e-02 0.0000000000000000e+00  -1.0571396459277797e-03 -1.8234922302069238e-02 0.0000000000000000e+00  -6.2085548595964375e-04 -1.9703397140099090e-02 0.0000000000000000e+00  -4.3141698559148473e-05 -1.8428914081475001e-02 0.0000000000000000e+00  4.5546546762614571e-04 -1.7916789145649963e-02 0.0000000000000000e+00  1.1120273313662955e-03 -2.0538819916342578e-02 0.0000000000000000e+00  1.5502926038597341e-03 -1.8506334525573126e-02 0.0000000000000000e+00  2.0312949948784642e-03 -1.8578941091770763e-02 0.0000000000000000e+00  2.7660369523414144e-03 -1.9806894939409840e-02 0.0000000000000000e+00  3.0575735459705531e-03 -1.8344153144396459e-02 0.0000000000000000e+00  3.4222571323031968e-03 -1.7456547052097093e-02 0.0000000000000000e+00  5.4872497322389141e-03 -2.4402236376530339e-02 0.0000000000000000e+00  4.1828832974693062e-03 -1.6721736444090106e-02 0.0000000000000000e+00  5.0625371090966716e-03 -1.7976377562092437e-02 0.0000000000000000e+00  6.0049976802486428e-03 -1.9368034373352157e-02 0.0000000000000000e+00  6.1108775687973233e-03 -1.7941278256859875e-02 0.0000000000000000e+00  6.4563252997647562e-03 -1.7447719958508544e-02 0.0000000000000000e+00  8.0256908820343434e-03 -1.9979383630428164e-02 0.0000000000000000e+00  7.0783885340274409e-03 -1.6296686317028273e-02 0.0000000000000000e+00  1.0448043216113267e-02 -2.2601478045107006e-02 0.0000000000000000e+00  8.0038020905997057e-03 -1.6201624330966172e-02 0.0000000000000000e+00  9.0888320297927913e-03 -1.7321703002252959e-02 0.0000000000000000e+00  9.6982306564978530e-03 -1.7376354836611891e-02 0.0000000000000000e+00  1.0859633259005947e-02 -1.8313360043058710e-02 0.0000000000000000e+00  9.9592910316303219e-03 -1.5936125319789038e-02 0.0000000000000000e+00  1.4126312959114755e-02 -2.1466075318698406e-02 0.0000000000000000e+00  1.0805854768460757e-02 -1.5687970453064796e-02 0.0000000000000000e+00  1.1605425843936612e-02 -1.6030310693016445e-02 0.0000000000000000e+00  1.2222078233634774e-02 -1.6192483778438453e-02 0.0000000000000000e+00  1.3097772556190785e-02 -1.6486712544335456e-02 0.0000000000000000e+00  1.3195336404243484e-02 -1.5907800686529899e-02 0.0000000000000000e+00  1.3144387559599865e-02 -1.5259331470098839e-02 0.0000000000000000e+00  1.4251702154620419e-02 -1.5639041559335182e-02 0.0000000000000000e+00  1.4454466971289045e-02 -1.5328879699905767e-02 0.0000000000000000e+00  1.5049317868209032e-02 -1.5322347373220239e-02 0.0000000000000000e+00  1.6036947173569890e-02 -1.5561811533421781e-02 0.0000000000000000e+00  1.4747739862213855e-02 -1.3767522984487595e-02 0.0000000000000000e+00  2.0667497587829937e-02 -1.8528566437057095e-02 0.0000000000000000e+00  1.5610078780039501e-02 -1.3460907481324214e-02 0.0000000000000000e+00  1.6512387595488037e-02 -1.3694304644660390e-02 0.0000000000000000e+00  1.6864845925225795e-02 -1.3497200018621166e-02 0.0000000000000000e+00  1.7879465319931922e-02 -1.3647153415555977e-02 0.0000000000000000e+00  1.7711967326855885e-02 -1.3055037457832312e-02 0.0000000000000000e+00  1.7569226322093467e-02 -1.2532492988339491e-02 0.0000000000000000e+00  1.8900028082981780e-02 -1.2877529698632140e-02 0.0000000000000000e+00  1.9486896740351412e-02 -1.2894375757687862e-02 0.0000000000000000e+00  1.9180790480664865e-02 -1.2175255349076283e-02 0.0000000000000000e+00  2.0909700678624160e-02 -1.2726582477419949e-02 0.0000000000000000e+00  1.9219337823747733e-02 -1.1299653574506978e-02 0.0000000000000000e+00  2.6009951293881527e-02 -1.4786638474043006e-02 0.0000000000000000e+00  1.9609938412781143e-02 -1.0784409990994892e-02 0.0000000000000000e+00  2.0563798423029314e-02 -1.0871636966658240e-02 0.0000000000000000e+00  2.1090860829477111e-02 -1.0751817016865927e-02 0.0000000000000000e+00  2.2755447711228376e-02 -1.1122433203066277e-02 0.0000000000000000e+00  2.2117494608733374e-02 -1.0465472343584073e-02 0.0000000000000000e+00  1.9732392182772316e-02 -9.0072005533904220e-03 0.0000000000000000e+00  2.9265786293869268e-02 -1.2737899375554345e-02 0.0000000000000000e+00  1.9798536014851955e-02 -8.3313317886246092e-03 0.0000000000000000e+00  2.2463987355668291e-02 -9.0133729240830605e-03 0.0000000000000000e+00  2.3839024359730711e-02 -9.1039780728058763e-03 0.0000000000000000e+00  2.1803734417677197e-02 -7.9618791842836524e-03 0.0000000000000000e+00  2.9715423158559327e-02 -1.0360882541525873e-02 0.0000000000000000e+00  2.2217270971146910e-02 -7.3724248888285141e-03 0.0000000000000000e+00  2.2433441452125551e-02 -7.0325894395725013e-03 0.0000000000000000e+00  2.3448010514749255e-02 -6.9605117694086296e-03 0.0000000000000000e+00  2.5697637283493321e-02 -7.1859573262235028e-03 0.0000000000000000e+00  2.3958393469422582e-02 -6.3737416439807355e-03 0.0000000000000000e+00  2.4759938191305036e-02 -6.2579846776229303e-03 0.0000000000000000e+00  2.5946917962889244e-02 -6.1502555691668450e-03 0.0000000000000000e+00  2.4785613700748877e-02 -5.5362831077942426e-03 0.0000000000000000e+00  2.2457923981545704e-02 -4.6727779372323069e-03 0.0000000000000000e+00  3.2973519418771406e-02 -6.3434846819540982e-03 0.0000000000000000e+00  2.1511021587285101e-02 -3.8422383472969755e-03 0.0000000000000000e+00  3.2284158839538682e-02 -5.2978971234749700e-03 0.0000000000000000e+00  2.3277460307617251e-02 -3.4992990714485485e-03 0.0000000000000000e+00  2.2758224674398773e-02 -3.1052618336038541e-03 0.0000000000000000e+00  3.2064841968714161e-02 -3.9930833284369501e-03 0.0000000000000000e+00  2.3174698089350430e-02 -2.6015424682647422e-03 0.0000000000000000e+00  2.4603089242730188e-02 -2.4534151676890536e-03 0.0000000000000000e+00  2.5435537774238064e-02 -2.1951783550659475e-03 0.0000000000000000e+00  2.6116359826977582e-02 -1.8676377489125757e-03 0.0000000000000000e+00  2.5643323827730866e-02 -1.4934433978157158e-03 0.0000000000000000e+00  2.5544714188186258e-02 -1.1364429868619946e-03 0.0000000000000000e+00  2.6324850538741739e-02 -8.0154991544057115e-04 0.0000000000000000e+00  2.2935771579324388e-02 -4.0058161338464966e-04 0.0000000000000000e+00  3.2671878737097114e-02 -1.2876065458746223e-04 0.0000000000000000e+00  1.9588929495748347e-02 1.6429526379239763e-04 0.0000000000000000e+00  3.2770687316485914e-02 7.5167394207312178e-04 0.0000000000000000e+00  2.2220743049907034e-02 7.8666423032190897e-04 0.0000000000000000e+00  2.5923933385841487e-02 1.2818644067571121e-03 0.0000000000000000e+00  2.5589648409770911e-02 1.6180625755577291e-03 0.0000000000000000e+00  2.3832302416889568e-02 1.8048314817973039e-03 0.0000000000000000e+00  2.6233491757983632e-02 2.3092296032448082e-03 0.0000000000000000e+00  2.3726414378597731e-02 2.3841364969249394e-03 0.0000000000000000e+00  2.2116860259837171e-02 2.4740598691767954e-03 0.0000000000000000e+00  3.1971684352009713e-02 3.8996351788109138e-03 0.0000000000000000e+00  2.3802492647455487e-02 3.2075640970583132e-03 0.0000000000000000e+00  2.3486793642581161e-02 3.4676374211650603e-03 0.0000000000000000e+00  2.4288817051402564e-02 3.8823708486306805e-03 0.0000000000000000e+00  2.5431336783025955e-02 4.3816528111340859e-03 0.0000000000000000e+00  2.3174558091826759e-02 4.2923199139729704e-03 0.0000000000000000e+00  2.3011346012576279e-02 4.5646197019255002e-03 0.0000000000000000e+00  2.2954579375001290e-02 4.8409740446098935e-03 0.0000000000000000e+00  2.3382560466187748e-02 5.2388799000986095e-03 0.0000000000000000e+00  2.4287390988359994e-02 5.7266198017822956e-03 0.0000000000000000e+00  2.4468054082191711e-02 6.1184532170970992e-03 0.0000000000000000e+00  2.1127921061447036e-02 5.6076093678196978e-03 0.0000000000000000e+00  2.9682182256