<?xml version="1.0"?>
<VTKFile type="UnstructuredGrid"  version="0.1"  >
<UnstructuredGrid>
<Piece  NumberOfPoints="4279" NumberOfCells="6774">
<Points>
<DataArray  type="Float64"  NumberOfComponents="3"  format="ascii">0 0.01 0  10 0.01 0  0 1.013256116745685 0  10 1.013256116745685 0  0.007129524987038337 0.009997491741717768 0  0.01258064459049757 0.00999219056738478 0  0.01872173241756402 0.009982708334120727 0  0.02429919625640796 0.009970876572043954 0  0.03017238705920286 0.009955108531615313 0  0.03612352734296466 0.0099356743715591 0  0.04164979236492252 0.009914517792428084 0  0.04780928449023854 0.009887415768096998 0  0.05327287671237849 0.009860276931383746 0  0.0593436395885565 0.009826715421083503 0  0.06505608699933001 0.009791870631895848 0  0.07077243060783153 0.009753845329312128 0  0.07684085351634186 0.009710036052663748 0  0.08230528612367993 0.009667566921662384 0  0.08846525752759338 0.009616276826848907 0  0.09398926586603956 0.0095672187064786 0  0.09994377871281757 0.009511110804477986 0  0.10581288515308 0.009452550633355501 0  0.1113930001121819 0.009393893683773193 0  0.1175326299024069 0.009326020378011352 0  0.122983161250664 0.009262856809916281 0  0.1290978349347763 0.009188765415777931 0  0.1347300222736412 0.00911751981665075 0  0.1405327472005438 0.009041131768776852 0  0.1465421455697866 0.008958856277281909 0  0.1520341809431761 0.008880870879718691 0  0.1581991754706344 0.00879018143976357 0  0.1636834803794234 0.008706732874359017 0  0.1697073563005918 0.008612096527554045 0  0.1754901396361989 0.008518345936558386 0  0.1811391035120075 0.008424050210098115 0  0.1872444279222087 0.00831915423323064 0  0.1926961446341008 0.008222899998379215 0  0.198841090009393 0.008111516418624823 0  0.2044064770158165 0.008008028244452866 0  0.2102948627703611 0.007895869216798803 0  0.2162299794791283 0.007780085801116003 0  0.2217647046821167 0.007669675498109103 0  0.2279204403470532 0.007544154739747676 0  0.2333791472114919 0.007430485124751003 0  0.2394590817234977 0.0073013084386626 0  0.245152498789355 0.007177928079207972 0  0.2508861115607116 0.007051356111670669 0  0.2569419868439766 0.006915186417023598 0  0.2624099649457279 0.006790084113692359 0  0.2685711825796066 0.006646722567663751 0  0.274083748205357 0.006516341894728842 0  0.2800541704182985 0.00637292855786236 0  0.2859022845836161 0.006230279166502627 0  0.291495955429921 0.006091868246150131 0  0.2976275706217687 0.005937986548763313 0  0.3030757324287757 0.005799406374294222 0  0.3091980118239236 0.005641654227187252 0  0.3148109405089491 0.005495191514879527 0  0.3206341933715942 0.005341435282378838 0  0.3266248575896781 0.005181393525330103 0  0.3321252080346692 0.005032833254881577 0  0.3382880718234609 0.004864596209960478 0  0.3437628463580178 0.004713611578807419 0  0.3498021006600692 0.004545443593512952 0  0.3555594631656461 0.004383601001460968 0  0.3612291099056053 0.004222822711549606 0  0.3673210805066339 0.004048576418709386 0  0.3727746135437823 0.003891330909934085 0  0.3789246700786391 0.003712634483246944 0  0.3844721023230384 0.00355025746928806 0  0.3903845048135511 0.003376011435332509 0  0.3962935688476314 0.003200699755406988 0  0.4018430601204535 0.00303505085978487 0  0.4079921977692303 0.002850427660455144 0  0.4134449905916002 0.002685819499171436 0  0.4195385366679084 0.002500937932218923 0  0.425204482428441 0.002328206591247292 0  0.4309651825948974 0.00215183074136113 0  0.4370014133195289 0.001966263547608745 0  0.4424769325836848 0.00179732019881714 0  0.4486395183564056 0.001606544730410899 0  0.4541373275735043 0.001435838569361521 0  0.4601308451156257 0.001249254088784412 0  0.4659488863550298 0.001067707976620331 0  0.471564807260988 0.0008921302908496037 0  0.4776843759254726 0.0007004920228137959 0  0.4831317484445766 0.0005296836585198918 0  0.4892643513384632 0.0003372062279158936 0  0.4948528283485032 0.000161696161435303 0  0.5007056813361916 -2.216943068070812e-05 0  0.5066699093509902 -0.000209526046556915 0  0.5121845298566023 -0.0003826949545447442 0  0.5183439831944545 -0.0005759742926309219 0  0.5238088617282698 -0.0007472800272428554 0  0.5298681543527348 -0.0009369594486414562 0  0.5355929349139432 -0.001115856450691032 0  0.5412927239341832 -0.001293613669039852 0  0.5473668732672543 -0.001482588207084091 0  0.5528259073001393 -0.001651967505962102 0  0.5589819336317072 -0.001842386787779294 0  0.5645100189486582 -0.002012797049529044 0  0.5704524332663232 -0.002195301346534757 0  0.5763298911552834 -0.002375058665203144 0  0.5819006708717119 -0.002544689651648297 0  0.5880413281562127 -0.002730768313747055 0  0.5934904284812221 -0.002895042191696308 0  0.5995995320960693 -0.003078202338538874 0  0.605236779888003 -0.003246210954182579 0  0.6110299855290301 -0.003417806240976177 0  0.6170432999212266 -0.00359472323302265 0  0.6225307972792151 -0.00375505261922207 0  0.6286944373476531 -0.003933803567825084 0  0.6341794289295242 -0.004091634709336539 0  0.6401977648984302 -0.004263413669385436 0  0.6459846030577213 -0.004427148756161272 0  0.6516277670629291 -0.004585409549508515 0  0.6577342305863492 -0.004755038487876419 0  0.6631843111407589 -0.004904958327357115 0  0.6693271588517591 -0.005072208653571043 0  0.6748942591145469 -0.005222152905474348 0  0.6807781354428797 -0.005378892074409919 0  0.6867158102497221 -0.005535201343768038 0  0.6922478556369909 -0.005679100421160843 0  0.6984036264198542 -0.005837205328254034 0  0.7038624132928571 -0.005975584427524931 0  0.7099402809449575 -0.006127588021236129 0  0.7156361945945205 -0.006268012368771779 0  0.7213667017809595 -0.006407263887957157 0  0.7274241898103784 -0.006552202568912044 0  0.7328913375361901 -0.006680980644346233 0  0.7390522654079078 -0.006823736587757829 0  0.7445663161830813 -0.006949337256267011 0  0.7505345306161221 -0.007082931996795786 0  0.7563856967966242 -0.007211490056377221 0  0.7619775509571868 -0.007332073958440476 0  0.7681106054434813 -0.007461725199742056 0  0.7735594228940573 -0.007574589702563127 0  0.7796809699364847 -0.007698739982391196 0  0.7852974086111042 -0.007810142587226769 0  0.7911178568436495 -0.007923025648348906 0  0.797112403703894 -0.008036515862006795 0  0.8026119630288198 -0.008138129173272899 0  0.8087760180262171 -0.008249131188213875 0  0.814253500572072 -0.008345174877796967 0  0.8202905515677629 -0.008448166667805387 0  0.8260544286221699 -0.008543663134562481 0  0.831720415905675 -0.008634807324656511 0  0.8378167080097026 -0.008729817306667463 0  0.8432709709919499 -0.008812108559864256 0  0.8494209576248264 -0.008901791974276371 0  0.8549745826348545 -0.008979924427376591 0  0.8608814329347291 -0.009060026011188804 0  0.8667998142885592 -0.009137155111096256 0  0.8723460990452367 -0.009206568509458774 0  0.8784989383774584 -0.009280301817794542 0  0.8839552890388401 -0.009342788637451834 0  0.8900456692707091 -0.009409293585850673 0  0.8957233874467343 -0.009468190513990782 0  0.9014754209053449 -0.009524786393944277 0  0.9075213579987256 -0.009580921173179099 0  0.9129954731058688 -0.009628765913494807 0  0.9191593188847452 -0.009679229788646495 0  0.9246655330424429 -0.009721240864333262 0  0.9306503084472221 -0.009763603884533442 0  0.9364847200361547 -0.009801580348484516 0  0.9420914259676206 -0.009834972127394636 0  0.948219177636862 -0.009867976960504428 0  0.9536688877131657 -0.009894257783109666 0  0.9597979104438458 -0.009920349306153329 0  0.9654020314719589 -0.009940987600901847 0  0.9712398170272581 -0.009959209624459757 0  0.9772219132298864 -0.009974407121723252 0  0.9827297975109929 -0.009985285083248089 0  0.9888934840407251 -0.009993913310034224 0  0.9943667421923366 -0.009998434045983932 0  1.000414962337846 -0.009999991502249178 0  1.00616395254491 -0.009998125110441144 0  1.011844857354635 -0.009993077234903055 0  1.017933801412069 -0.009984132829796667 0  1.023390946643176 -0.00997301205183276 0  1.029544679732296 -0.009956955598792184 0  1.035089558108845 -0.009939300412459717 0  1.041010936359372 -0.009917116481575694 0  1.04691554237944 -0.00989157814857561 0  1.052471258615448 -0.009864440751261633 0  1.05862104751389 -0.009830897850136421 0  1.064075481579663 -0.009798076706746352 0  1.070173358231585 -0.009757978136698224 0  1.075837941143087 -0.00971752009646258 0  1.081604377355612 -0.009673173917302162 0  1.087640686528322 -0.009623351755525641 0  1.093119387704205 -0.009575135453199036 0  1.099284093826516 -0.009517491101966447 0  1.104783734376909 -0.009463052176492596 0  1.110779897618174 -0.009400480030121557 0  1.116599992234411 -0.00933655469875222 0  1.122217899723542 -0.009271889359757672 0  1.128339818747432 -0.009198135031144493 0  1.133789446190431 -0.00912961705214143 0  1.139923317158062 -0.009049295973540348 0  1.145515844317945 -0.008973134373133167 0  1.151367773813766 -0.008890475161473248 0  1.157336906671575 -0.008803064948780913 0  1.16285160438384 -0.008719557366803981 0  1.16901331600552 -0.008623157866544266 0  1.174481522907442 -0.00853490108265173 0  1.180539122189597 -0.008434191931863186 0  1.186271617394136 -0.008336073959344166 0  1.191966996821913 -0.008235914041393521 0  1.198046448076202 -0.008126091334838595 0  1.203505695906331 -0.008024945109277802 0  1.209661806077474 -0.007908057515838151 0  1.21519584913737 -0.007800455577732041 0  1.221132109188887 -0.00768241304184519 0  1.227019087412133 -0.007562711583992629 0  1.232585135446325 -0.007447155722966398 0  1.238729389023077 -0.007316953404904543 0  1.244180486899644 -0.007199156086382225 0  1.250286093435722 -0.007064709646262071 0  1.255932842016573 -0.006938052500145445 0  1.261716857103797 -0.006806053534187844 0  1.26773845151126 -0.006666245775332091 0  1.273222687278595 -0.006536836953056475 0  1.279386853652711 -0.00638906998029936 0  1.284876650734994 -0.006255450389977176 0  1.290887326898431 -0.00610702037198264 0  1.296685536664392 -0.00596177282270944 0  1.30231949087952 -0.005818744638503708 0  1.308431215520824
[...]
<PointData  Vectors="Traction"> 
<DataArray  type="Float64"  Name="Traction"  NumberOfComponents="3" format="ascii">-3.3734246384404567e-06 1.4807511208213680e-02 0.0000000000000000e+00  -3.3734246384404567e-06 1.4807511208213680e-02 0.0000000000000000e+00  9.2492667330699873e-09 -1.6150812220903284e-08 0.0000000000000000e+00  9.2492667330699873e-09 -1.6150812220903284e-08 0.0000000000000000e+00  -8.2591093276365637e-04 2.7326431020177854e-02 0.0000000000000000e+00  -1.1103158891018399e-03 2.5730132926664654e-02 0.0000000000000000e+00  -1.2004025040624931e-03 1.8659476563768061e-02 0.0000000000000000e+00  -2.5483783440950506e-03 2.8042479765976243e-02 0.0000000000000000e+00  -1.5639629681109888e-03 1.3930412196878777e-02 0.0000000000000000e+00  -3.8412242303601913e-03 2.8234389020481702e-02 0.0000000000000000e+00  -3.1545179661168900e-03 2.0258826020880610e-02 0.0000000000000000e+00  -3.5943939780740306e-03 1.9786436673692336e-02 0.0000000000000000e+00  -4.0029113065236819e-03 1.9696133666337164e-02 0.0000000000000000e+00  -4.9375445848737071e-03 2.1603346879052444e-02 0.0000000000000000e+00  -5.1041487167759921e-03 2.0378354672586946e-02 0.0000000000000000e+00  -5.3657562544354998e-03 1.9734979655329568e-02 0.0000000000000000e+00  -5.9479364936947379e-03 2.0058747321230468e-02 0.0000000000000000e+00  -8.2834054036706947e-03 2.6035428982405500e-02 0.0000000000000000e+00  -5.6011777040258183e-03 1.6522754982854788e-02 0.0000000000000000e+00  -9.3923298161578978e-03 2.5857631082635779e-02 0.0000000000000000e+00  -5.8846612432722316e-03 1.5228668794319463e-02 0.0000000000000000e+00  -1.0416256429338121e-02 2.5384454620177060e-02 0.0000000000000000e+00  -7.6314594426581464e-03 1.7650135198731726e-02 0.0000000000000000e+00  -8.1565467576158700e-03 1.7705293137824756e-02 0.0000000000000000e+00  -1.1698787543010451e-02 2.4098788283292347e-02 0.0000000000000000e+00  -8.9202126869994663e-03 1.7418296216043839e-02 0.0000000000000000e+00  -8.7306949687382344e-03 1.6157020348705836e-02 0.0000000000000000e+00  -1.1387355913843092e-02 2.0049021582241349e-02 0.0000000000000000e+00  -1.2066604265329094e-02 2.0240295956054782e-02 0.0000000000000000e+00  -1.1172939469621090e-02 1.7993303082395936e-02 0.0000000000000000e+00  -1.1376261988085100e-02 1.7502262433430685e-02 0.0000000000000000e+00  -1.5583043145284123e-02 2.3060529537076668e-02 0.0000000000000000e+00  -1.1993552619501619e-02 1.7093737471510689e-02 0.0000000000000000e+00  -1.2729778592552456e-02 1.7437584430599510e-02 0.0000000000000000e+00  -1.3362155581263479e-02 1.7636771477083868e-02 0.0000000000000000e+00  -1.3982858005459068e-02 1.7636224089026802e-02 0.0000000000000000e+00  -1.3444197083597415e-02 1.6389630374002189e-02 0.0000000000000000e+00  -1.9378202551435488e-02 2.2731760937974677e-02 0.0000000000000000e+00  -1.2603696315919096e-02 1.4382341887563710e-02 0.0000000000000000e+00  -1.6244498108462992e-02 1.7783378130927667e-02 0.0000000000000000e+00  -1.7129769915456117e-02 1.7978533894496575e-02 0.0000000000000000e+00  -1.4787135475938627e-02 1.5017025124871944e-02 0.0000000000000000e+00  -1.7145500493749955e-02 1.6707515610897936e-02 0.0000000000000000e+00  -1.6327928896030488e-02 1.5369115983024709e-02 0.0000000000000000e+00  -1.7380090779108563e-02 1.5841321716335208e-02 0.0000000000000000e+00  -1.7765486027446757e-02 1.5506672976178850e-02 0.0000000000000000e+00  -1.8798592012535326e-02 1.5833742185975580e-02 0.0000000000000000e+00  -1.6570013230327647e-02 1.3484155845135820e-02 0.0000000000000000e+00  -2.4023823338371896e-02 1.8973604623391403e-02 0.0000000000000000e+00  -1.5609948507588258e-02 1.1894292497309935e-02 0.0000000000000000e+00  -2.5616271927520248e-02 1.8687722089563562e-02 0.0000000000000000e+00  -1.5466722224548495e-02 1.0912026238051811e-02 0.0000000000000000e+00  -2.6005577532494766e-02 1.7648501703625544e-02 0.0000000000000000e+00  -1.7328379895632580e-02 1.1380570651912872e-02 0.0000000000000000e+00  -2.2990401680622316e-02 1.4480045343683596e-02 0.0000000000000000e+00  -2.0863847793225036e-02 1.2615723713032047e-02 0.0000000000000000e+00  -2.1376308487708984e-02 1.2416093162480641e-02 0.0000000000000000e+00  -2.3693263482496098e-02 1.3190185691678522e-02 0.0000000000000000e+00  -2.2303065773885973e-02 1.1942144263264102e-02 0.0000000000000000e+00  -2.2296686647325575e-02 1.1462489669627068e-02 0.0000000000000000e+00  -2.3739523473325204e-02 1.1696523403423477e-02 0.0000000000000000e+00  -2.1087884426067027e-02 1.0026952209765891e-02 0.0000000000000000e+00  -3.0047445903966779e-02 1.3726356580827503e-02 0.0000000000000000e+00  -1.8358838444482935e-02 8.0553383198081786e-03 0.0000000000000000e+00  -3.0675399977466759e-02 1.2871067014218227e-02 0.0000000000000000e+00  -2.1086768700546089e-02 8.4966343995245396e-03 0.0000000000000000e+00  -2.3223299037463126e-02 8.8976562427911781e-03 0.0000000000000000e+00  -3.1904684791664660e-02 1.1613756064535387e-02 0.0000000000000000e+00  -2.1219518069473968e-02 7.4777819067608636e-03 0.0000000000000000e+00  -2.3686959341583491e-02 8.0069227003780434e-03 0.0000000000000000e+00  -2.4987294586680277e-02 8.0296982589008799e-03 0.0000000000000000e+00  -2.4426653799137318e-02 7.5420470451238826e-03 0.0000000000000000e+00  -2.4738215054405675e-02 7.2382651449050582e-03 0.0000000000000000e+00  -2.5916855032094888e-02 7.1479400677549251e-03 0.0000000000000000e+00  -3.3959358208372238e-02 8.8183338830826376e-03 0.0000000000000000e+00  -2.4257136716148708e-02 6.0001834875086524e-03 0.0000000000000000e+00  -2.2171518117650984e-02 5.0996462643392452e-03 0.0000000000000000e+00  -3.3931284203768702e-02 7.3161412586521006e-03 0.0000000000000000e+00  -2.4299446887053901e-02 4.8191173688662704e-03 0.0000000000000000e+00  -2.8607830835177598e-02 5.2384428789056803e-03 0.0000000000000000e+00  -2.6006641508240544e-02 4.3294816688085654e-03 0.0000000000000000e+00  -2.6791732779806194e-02 4.0945881332317569e-03 0.0000000000000000e+00  -2.5711300362474338e-02 3.5407406315132997e-03 0.0000000000000000e+00  -3.5684697782258121e-02 4.3676713307307050e-03 0.0000000000000000e+00  -2.2196195833079933e-02 2.4249480952981371e-03 0.0000000000000000e+00  -3.5598463955700696e-02 3.3739480886918398e-03 0.0000000000000000e+00  -2.1963922196843937e-02 1.7579628442193200e-03 0.0000000000000000e+00  -2.8216485016958049e-02 1.8673872042777402e-03 0.0000000000000000e+00  -2.8621283990845202e-02 1.4805628394508718e-03 0.0000000000000000e+00  -2.5476039172621427e-02 9.5457884283488379e-04 0.0000000000000000e+00  -3.5440984900707691e-02 8.5614869812311990e-04 0.0000000000000000e+00  -2.6350296397748215e-02 2.6515467835536112e-04 0.0000000000000000e+00  -2.7005588306990371e-02 -1.2338686452267723e-04 0.0000000000000000e+00  -2.7358846074768264e-02 -4.8888290955193415e-04 0.0000000000000000e+00  -2.8597097493139132e-02 -9.0665308447903748e-04 0.0000000000000000e+00  -2.8994036225152394e-02 -1.3239643937479715e-03 0.0000000000000000e+00  -2.3713796497977172e-02 -1.4126570076783489e-03 0.0000000000000000e+00  -3.5314247469294235e-02 -2.6080674518258961e-03 0.0000000000000000e+00  -2.4289548116051468e-02 -2.1180325663094964e-03 0.0000000000000000e+00  -2.8962617541375552e-02 -2.9261860719759663e-03 0.0000000000000000e+00  -2.9215193736436065e-02 -3.3858170504620891e-03 0.0000000000000000e+00  -2.5476369616555500e-02 -3.3290360552071783e-03 0.0000000000000000e+00  -3.5426492646124477e-02 -5.1064576897222351e-03 0.0000000000000000e+00  -2.5325579692420386e-02 -4.0205989607481020e-03 0.0000000000000000e+00  -2.5210987450612773e-02 -4.4044343430631261e-03 0.0000000000000000e+00  -3.5986048038270997e-02 -6.7902282116536275e-03 0.0000000000000000e+00  -2.2286520838368698e-02 -4.5753409231393035e-03 0.0000000000000000e+00  -3.5674082337508538e-02 -7.8425589056633008e-03 0.0000000000000000e+00  -2.3899461946012591e-02 -5.6267830056985725e-03 0.0000000000000000e+00  -2.8892144100739921e-02 -7.2408118551674592e-03 0.0000000000000000e+00  -2.6004873502789280e-02 -6.9459974134546184e-03 0.0000000000000000e+00  -2.7220857535680838e-02 -7.6962717789313406e-03 0.0000000000000000e+00  -2.7824711250233548e-02 -8.2829860876774668e-03 0.0000000000000000e+00  -2.4484940296913962e-02 -7.7550848691388440e-03 0.0000000000000000e+00  -3.3640491259207567e-02 -1.1204335498706659e-02 0.0000000000000000e+00  -2.5036275035124771e-02 -8.7936726054268170e-03 0.0000000000000000e+00  -2.5304247784379081e-02 -9.3560310422915044e-03 0.0000000000000000e+00  -2.5710883178006211e-02 -9.9552613813031383e-03 0.0000000000000000e+00  -2.5902961796232717e-02 -1.0476912493299628e-02 0.0000000000000000e+00  -2.5192462919461801e-02 -1.0685395359298687e-02 0.0000000000000000e+00  -2.4260987088014715e-02 -1.0743220077569282e-02 0.0000000000000000e+00  -2.5143567697911665e-02 -1.1607408437043840e-02 0.0000000000000000e+00  -2.4346718736251546e-02 -1.1839954583192470e-02 0.0000000000000000e+00  -2.4001856152293194e-02 -1.2182390695358510e-02 0.0000000000000000e+00  -2.4873978900373850e-02 -1.3131855229918809e-02 0.0000000000000000e+00  -2.1336568186398126e-02 -1.1770659483462181e-02 0.0000000000000000e+00  -2.9602010332178481e-02 -1.6938856681385714e-02 0.0000000000000000e+00  -2.0562114984389333e-02 -1.2227829500621516e-02 0.0000000000000000e+00  -2.0766942044120888e-02 -1.2833767784973258e-02 0.0000000000000000e+00  -2.8408558879614701e-02 -1.8109058770542773e-02 0.0000000000000000e+00  -2.0112132661024108e-02 -1.3338990657852318e-02 0.0000000000000000e+00  -2.1866461102464940e-02 -1.5083594134446389e-02 0.0000000000000000e+00  -2.1636322798430089e-02 -1.5483476724914264e-02 0.0000000000000000e+00  -2.1543959884035551e-02 -1.5944156455220775e-02 0.0000000000000000e+00  -2.0859063984589307e-02 -1.6145480523315440e-02 0.0000000000000000e+00  -2.0507172673840484e-02 -1.6473099848918742e-02 0.0000000000000000e+00  -2.0551040620947862e-02 -1.7024404870302854e-02 0.0000000000000000e+00  -1.7585795052033167e-02 -1.5196624778942373e-02 0.0000000000000000e+00  -2.4068533857706530e-02 -2.1543574615210722e-02 0.0000000000000000e+00  -1.7180052670764070e-02 -1.6011794418473255e-02 0.0000000000000000e+00  -1.7475725901915068e-02 -1.6958306374714086e-02 0.0000000000000000e+00  -1.7443110853543924e-02 -1.7501913607314342e-02 0.0000000000000000e+00  -1.7394939981741863e-02 -1.8082768132920739e-02 0.0000000000000000e+00  -1.6598448840503564e-02 -1.8034379952019085e-02 0.0000000000000000e+00  -1.6330321409721450e-02 -1.8401037049910897e-02 0.0000000000000000e+00  -1.6424499962334624e-02 -1.9208804461427698e-02 0.0000000000000000e+00  -1.4341427164259846e-02 -1.7534909069244611e-02 0.0000000000000000e+00  -1.9265047433043841e-02 -2.4525877055346593e-02 0.0000000000000000e+00  -1.3229502236537046e-02 -1.7539319923087913e-02 0.0000000000000000e+00  -1.3138903002049061e-02 -1.8276345306939820e-02 0.0000000000000000e+00  -1.7455019794539207e-02 -2.5262404859645097e-02 0.0000000000000000e+00  -1.2331983055932057e-02 -1.8690895000151721e-02 0.0000000000000000e+00  -1.2952322617763811e-02 -2.0666116985323519e-02 0.0000000000000000e+00  -1.2407004502807569e-02 -2.0815146486021910e-02 0.0000000000000000e+00  -1.0927785430188318e-02 -1.9389542377103452e-02 0.0000000000000000e+00  -1.4267650614626133e-02 -2.6589988722149439e-02 0.0000000000000000e+00  -9.9902806546351072e-03 -1.9746919833877542e-02 0.0000000000000000e+00  -1.0024554965822430e-02 -2.1070097555464726e-02 0.0000000000000000e+00  -9.4942735845997706e-03 -2.1212419005272019e-02 0.0000000000000000e+00  -8.8151349472519805e-03 -2.1119770629299619e-02 0.0000000000000000e+00  -1.1172436942768395e-02 -2.8418484939634069e-02 0.0000000000000000e+00  -7.1223554865703078e-03 -1.9602993183735578e-02 0.0000000000000000e+00  -7.0492475111287329e-03 -2.0958325094263527e-02 0.0000000000000000e+00  -7.2384588877354552e-03 -2.3474904023215552e-02 0.0000000000000000e+00  -6.4986866462162576e-03 -2.3199972519993443e-02 0.0000000000000000e+00  -4.9652599033392138e-03 -1.9563139133548950e-02 0.0000000000000000e+00  -6.4338585597433851e-03 -2.8496936465286372e-02 0.0000000000000000e+00  -3.9550741259952111e-03 -1.9647739581965910e-02 0.0000000000000000e+00  -4.0687827148153631e-03 -2.3411730458366080e-02 0.0000000000000000e+00  -3.4950287245562187e-03 -2.3634668367039098e-02 0.0000000000000000e+00  -2.6882205217081058e-03 -2.2200951338511875e-02 0.0000000000000000e+00  -2.0460852228644435e-03 -2.1663582791500650e-02 0.0000000000000000e+00  -1.7016888454662773e-03 -2.4735450565646744e-02 0.0000000000000000e+00  -9.3860440130419539e-04 -2.2407801321632094e-02 0.0000000000000000e+00  -4.2586635201120459e-04 -2.2423783720963479e-02 0.0000000000000000e+00  1.6776312581382689e-04 -2.3917427358288942e-02 0.0000000000000000e+00  6.9664812399480728e-04 -2.2277981693172584e-02 0.0000000000000000e+00  1.2304985470411526e-03 -2.1931045926523857e-02 0.0000000000000000e+00  2.4029693973510857e-03 -3.0060689548960257e-02 0.0000000000000000e+00  2.0904232165484616e-03 -2.0693002867702395e-02 0.0000000000000000e+00  2.8226239043557871e-03 -2.1900040923834702e-02 0.0000000000000000e+00  3.6086889578702784e-03 -2.3598226133093838e-02 0.0000000000000000e+00  3.9088275980567796e-03 -2.1868810566349626e-02 0.0000000000000000e+00  4.3784150450674447e-03 -2.1364848587756509e-02 0.0000000000000000e+00  5.6177410730817246e-03 -2.4274455580818213e-02 0.0000000000000000e+00  5.6733504557020019e-03 -2.1939381158441799e-02 0.0000000000000000e+00  6.1975107570165769e-03 -2.1921119082041609e-02 0.0000000000000000e+00  7.2412480443895932e-03 -2.3292762110282660e-02 0.0000000000000000e+00  7.2854393349452403e-03 -2.1637766041315645e-02 0.0000000000000000e+00  7.6979162731184445e-03 -2.1146262039078753e-02 0.0000000000000000e+00  1.1305375022755412e-02 -2.8883264416424824e-02 0.0000000000000000e+00  8.1836573100227249e-03 -1.9774800606575906e-02 0.0000000000000000e+00  9.2960856505338394e-03 -2.0916307207228157e-02 0.0000000000000000e+00  1.0574392846876831e-02 -2.2428888170285051e-02 0.0000000000000000e+00  1.0372745106140202e-02 -2.0753353392711296e-02 0.0000000000000000e+00  1.0614276278781261e-02 -2.0102503330070506e-02 0.0000000000000000e+00  1.2807778763370074e-02 -2.2969983557525560e-02 0.0000000000000000e+00  1.1023810916772065e-02 -1.8763067958566963e-02 0.0000000000000000e+00  1.5881532578236584e-02 -2.5906723282555933e-02 0.0000000000000000e+00  1.2112416821150548e-02 -1.8868865106102355e-02 0.0000000000000000e+00  1.3134794450853277e-02 -1.9594614468415705e-02 0.0000000000000000e+00  1.4386807407557586e-02 -2.0442125291561482e-02 0.0000000000000000e+00  1.4441725025720156e-02 -1.9587821972930644e-02 0.0000000000000000e+00  1.5061214754324769e-02 -1.9507282821214875e-02 0.0000000000000000e+00  1.6051678346487745e-02 -1.9811917992626691e-02 0.0000000000000000e+00  1.6092003410403507e-02 -1.9097710809241705e-02 0.0000000000000000e+00  1.6459086637560221e-02 -1.8752766394818501e-02 0.0000000000000000e+00  1.8723418499428168e-02 -2.0404413828539830e-02 0.0000000000000000e+00  1.7348571638009059e-02 -1.8143937620676877e-02 0.0000000000000000e+00  1.5909928321221668e-02 -1.5897538619475422e-02 0.0000000000000000e+00  2.4568304478439568e-02 -2.3506480828599637e-02 0.0000000000000000e+00  1.5438676428291463e-02 -1.4257183931616794e-02 0.0000000000000000e+00  2.4754027443456728e-02 -2.2022953639131013e-02 0.0000000000000000e+00  1.5635103741095523e-02 -1.3406670180105202e-02 0.0000000000000000e+00  2.6385080230477406e-02 -2.1756526370137981e-02 0.0000000000000000e+00  1.7288791928661101e-02 -1.3800079280079152e-02 0.0000000000000000e+00  2.0411832222029590e-02 -1.5711809248110220e-02 0.0000000000000000e+00  2.3279767366521820e-02 -1.7170228894437457e-02 0.0000000000000000e+00  2.1131966860422104e-02 -1.4980679554801599e-02 0.0000000000000000e+00  2.1594946173484578e-02 -1.4718455772266185e-02 0.0000000000000000e+00  2.4814597976557287e-02 -1.6221508789535231e-02 0.0000000000000000e+00  2.0535412244780456e-02 -1.2904225598648671e-02 0.0000000000000000e+00  2.9701677431222415e-02 -1.7990367112427161e-02 0.0000000000000000e+00  1.8424859259698945e-02 -1.0735491585271888e-02 0.0000000000000000e+00  3.0953273433494383e-02 -1.7346446830853686e-02 0.0000000000000000e+00  1.8730057793005142e-02 -1.0084272798860426e-02 0.0000000000000000e+00  3.1208954123313756e-02 -1.6128414109209337e-02 0.0000000000000000e+00  2.1306486066182934e-02 -1.0603298138445084e-02 0.0000000000000000e+00  2.2575515660265891e-02 -1.0781091594208441e-02 0.0000000000000000e+00  3.2074493717487162e-02 -1.4686541339582712e-02 0.0000000000000000e+00  1.9940713734791837e-02 -8.7576140269397217e-03 0.0000000000000000e+00  3.2910134523852046e-02 -1.3854263738313543e-02 0.0000000000000000e+00  2.2571302176457468e-02 -9.1032610557126407e-03 0.0000000000000000e+00  2.7114317183990270e-02 -1.0430797432785691e-02 0.0000000000000000e+00  2.5852101765022714e-02 -9.5367769684240617e-03 0.0000000000000000e+00  2.3419542278581718e-02 -8.2703665997150618e-03 0.0000000000000000e+00  2.6779385477089076e-02 -8.9957076945394957e-03 0.0000000000000000e+00  2.7368157235007576e-02 -8.6872046442057257e-03 0.0000000000000000e+00  2.8012077499047335e-02 -8.4594397664174373e-03 0.0000000000000000e+00  2.4704124749114788e-02 -7.0843950286596999e-03 0.0000000000000000e+00  3.4218186510816359e-02 -9.2845119777307875e-03 0.0000000000000000e+00  2.5515922723808589e-02 -6.5412950069081346e-03 0.0000000000000000e+00  2.6702641289579460e-02 -6.4106693281497850e-03 0.0000000000000000e+00  2.7136945887760913e-02 -6.1024999669308704e-03 0.0000000000000000e+00  2.7184111873940649e-02 -5.6892119045493673e-03 0.0000000000000000e+00  2.7263228330736800e-02 -5.2905674524855104e-03 0.0000000000000000e+00  2.9382124427592523e-02 -5.2678112477502507e-03 0.0000000000000000e+00  2.6807092198288900e-02 -4.3692941402318454e-03 0.0000000000000000e+00  3.6890019946602529e-02 -5.4222534858523004e-03 0.0000000000000000e+00  2.2800656386627725e-02 -3.0452716702533086e-03 0.0000000000000000e+00  3.5839128393768738e-02 -4.2621853873112811e-03 0.0000000000000000e+00  2.4014938399186073e-02 -2.4816898963028284e-03 0.0000000000000000e+00  2.7625936949161989e-02 -2.4778901876960006e-03 0.0000000000000000e+00  2.7493558200687114e-02 -2.0823776224021531e-03 0.0000000000000000e+00  2.6723574125599375e-02 -1.6371725294090887e-03 0.0000000000000000e+00  3.5558428059135991e-02 -1.7020791969507352e-03 0.0000000000000000e+00  2.6044293058016189e-02 -8.7921027382601422e-04 0.0000000000000000e+00  2.7914753077715456e-02 -5.5885064736807815e-04 0.0000000000000000e+00  2.8057416320152861e-02 -1.7999237814441741e-04 0.0000000000000000e+00  2.7739409233558644e-02 2.0994291425324187e-04 0.0000000000000000e+00  2.7716076536666110e-02 5.8405534097459827e-04 0.0000000000000000e+00  2.9545940104707954e-02 1.0255362436945603e-03 0.0000000000000000e+00  2.8672806696031075e-02 1.4007718874699902e-03 0.0000000000000000e+00  2.5446501832980004e-02 1.6000983133096927e-03 0.0000000000000000e+00  3.4867040849203106e-02 2.6883928195965538e-03 0.0000000000000000e+00  2.5170570126128788e-02 2.3172667758644275e-03 0.0000000000000000e+00  2.5803472824820550e-02 2.7793001508897267e-03 0.0000000000000000e+00  2.7122468069185411e-02 3.3041059853325169e-03 0.0000000000000000e+00  2.7642789335807098e-02 3.7923289251368328e-03 0.0000000000000000e+00  2.5647324631407748e-02 3.9235743489989799e-03 0.0000000000000000e+00  2.7796406520666016e-02 4.6379180028193728e-03 0.0000000000000000e+00  2.7983033489940849e-02 5.0771855673764632e-03 0.0000000000000000e+00  2.6752292311610734e-02 5.2795827583802576e-03 0.0000000000000000e+00  2.3701795404566656e-02 5.0413496126788743e-03 0.0000000000000000e+00  3.4955460217810055e-02 7.9146195741586940e-03 0.0000000000000000e+00  2.2120023641306448e-02 5.3636247714297673e-03 0.0000000000000000e+00  3.3276702947375038e-02 8.5775628393847548e-03 0.0000000000000000e+00  2.3252229155644333e-02 6.3913536146785396e-03 0.0000000000000000e+00  2.2892029515314133e-02 6.6899700213035665e-03 0.0000000000000000e+00  3.2108923144