<?xml version="1.0"?>
<VTKFile type="UnstructuredGrid"  version="0.1"  >
<UnstructuredGrid>
<Piece  NumberOfPoints="4276" NumberOfCells="6769">
<Points>
<DataArray  type="Float64"  NumberOfComponents="3"  format="ascii">0 0.01 0  10 0.01 0  0 1.01 0  10 1.01 0  0.007129524987038337 0.009997491741717768 0  0.01258064459049757 0.00999219056738478 0  0.01872173241756402 0.009982708334120727 0  0.02429919625640796 0.009970876572043954 0  0.03017238705920286 0.009955108531615313 0  0.03612352734296466 0.0099356743715591 0  0.04164979236492252 0.009914517792428084 0  0.04780928449023854 0.009887415768096998 0  0.05327287671237849 0.009860276931383746 0  0.0593436395885565 0.009826715421083503 0  0.06505608699933001 0.009791870631895848 0  0.07077243060783153 0.009753845329312128 0  0.07684085351634186 0.009710036052663748 0  0.08230528612367993 0.009667566921662384 0  0.08846525752759338 0.009616276826848907 0  0.09398926586603956 0.0095672187064786 0  0.09994377871281757 0.009511110804477986 0  0.10581288515308 0.009452550633355501 0  0.1113930001121819 0.009393893683773193 0  0.1175326299024069 0.009326020378011352 0  0.122983161250664 0.009262856809916281 0  0.1290978349347763 0.009188765415777931 0  0.1347300222736412 0.00911751981665075 0  0.1405327472005438 0.009041131768776852 0  0.1465421455697866 0.008958856277281909 0  0.1520341809431761 0.008880870879718691 0  0.1581991754706344 0.00879018143976357 0  0.1636834803794234 0.008706732874359017 0  0.1697073563005918 0.008612096527554045 0  0.1754901396361989 0.008518345936558386 0  0.1811391035120075 0.008424050210098115 0  0.1872444279222087 0.00831915423323064 0  0.1926961446341008 0.008222899998379215 0  0.198841090009393 0.008111516418624823 0  0.2044064770158165 0.008008028244452866 0  0.2102948627703611 0.007895869216798803 0  0.2162299794791283 0.007780085801116003 0  0.2217647046821167 0.007669675498109103 0  0.2279204403470532 0.007544154739747676 0  0.2333791472114919 0.007430485124751003 0  0.2394590817234977 0.0073013084386626 0  0.245152498789355 0.007177928079207972 0  0.2508861115607116 0.007051356111670669 0  0.2569419868439766 0.006915186417023598 0  0.2624099649457279 0.006790084113692359 0  0.2685711825796066 0.006646722567663751 0  0.274083748205357 0.006516341894728842 0  0.2800541704182985 0.00637292855786236 0  0.2859022845836161 0.006230279166502627 0  0.291495955429921 0.006091868246150131 0  0.2976275706217687 0.005937986548763313 0  0.3030757324287757 0.005799406374294222 0  0.3091980118239236 0.005641654227187252 0  0.3148109405089491 0.005495191514879527 0  0.3206341933715942 0.005341435282378838 0  0.3266248575896781 0.005181393525330103 0  0.3321252080346692 0.005032833254881577 0  0.3382880718234609 0.004864596209960478 0  0.3437628463580178 0.004713611578807419 0  0.3498021006600692 0.004545443593512952 0  0.3555594631656461 0.004383601001460968 0  0.3612291099056053 0.004222822711549606 0  0.3673210805066339 0.004048576418709386 0  0.3727746135437823 0.003891330909934085 0  0.3789246700786391 0.003712634483246944 0  0.3844721023230384 0.00355025746928806 0  0.3903845048135511 0.003376011435332509 0  0.3962935688476314 0.003200699755406988 0  0.4018430601204535 0.00303505085978487 0  0.4079921977692303 0.002850427660455144 0  0.4134449905916002 0.002685819499171436 0  0.4195385366679084 0.002500937932218923 0  0.425204482428441 0.002328206591247292 0  0.4309651825948974 0.00215183074136113 0  0.4370014133195289 0.001966263547608745 0  0.4424769325836848 0.00179732019881714 0  0.4486395183564056 0.001606544730410899 0  0.4541373275735043 0.001435838569361521 0  0.4601308451156257 0.001249254088784412 0  0.4659488863550298 0.001067707976620331 0  0.471564807260988 0.0008921302908496037 0  0.4776843759254726 0.0007004920228137959 0  0.4831317484445766 0.0005296836585198918 0  0.4892643513384632 0.0003372062279158936 0  0.4948528283485032 0.000161696161435303 0  0.5007056813361916 -2.216943068070812e-05 0  0.5066699093509902 -0.000209526046556915 0  0.5121845298566023 -0.0003826949545447442 0  0.5183439831944545 -0.0005759742926309219 0  0.5238088617282698 -0.0007472800272428554 0  0.5298681543527348 -0.0009369594486414562 0  0.5355929349139432 -0.001115856450691032 0  0.5412927239341832 -0.001293613669039852 0  0.5473668732672543 -0.001482588207084091 0  0.5528259073001393 -0.001651967505962102 0  0.5589819336317072 -0.001842386787779294 0  0.5645100189486582 -0.002012797049529044 0  0.5704524332663232 -0.002195301346534757 0  0.5763298911552834 -0.002375058665203144 0  0.5819006708717119 -0.002544689651648297 0  0.5880413281562127 -0.002730768313747055 0  0.5934904284812221 -0.002895042191696308 0  0.5995995320960693 -0.003078202338538874 0  0.605236779888003 -0.003246210954182579 0  0.6110299855290301 -0.003417806240976177 0  0.6170432999212266 -0.00359472323302265 0  0.6225307972792151 -0.00375505261922207 0  0.6286944373476531 -0.003933803567825084 0  0.6341794289295242 -0.004091634709336539 0  0.6401977648984302 -0.004263413669385436 0  0.6459846030577213 -0.004427148756161272 0  0.6516277670629291 -0.004585409549508515 0  0.6577342305863492 -0.004755038487876419 0  0.6631843111407589 -0.004904958327357115 0  0.6693271588517591 -0.005072208653571043 0  0.6748942591145469 -0.005222152905474348 0  0.6807781354428797 -0.005378892074409919 0  0.6867158102497221 -0.005535201343768038 0  0.6922478556369909 -0.005679100421160843 0  0.6984036264198542 -0.005837205328254034 0  0.7038624132928571 -0.005975584427524931 0  0.7099402809449575 -0.006127588021236129 0  0.7156361945945205 -0.006268012368771779 0  0.7213667017809595 -0.006407263887957157 0  0.7274241898103784 -0.006552202568912044 0  0.7328913375361901 -0.006680980644346233 0  0.7390522654079078 -0.006823736587757829 0  0.7445663161830813 -0.006949337256267011 0  0.7505345306161221 -0.007082931996795786 0  0.7563856967966242 -0.007211490056377221 0  0.7619775509571868 -0.007332073958440476 0  0.7681106054434813 -0.007461725199742056 0  0.7735594228940573 -0.007574589702563127 0  0.7796809699364847 -0.007698739982391196 0  0.7852974086111042 -0.007810142587226769 0  0.7911178568436495 -0.007923025648348906 0  0.797112403703894 -0.008036515862006795 0  0.8026119630288198 -0.008138129173272899 0  0.8087760180262171 -0.008249131188213875 0  0.814253500572072 -0.008345174877796967 0  0.8202905515677629 -0.008448166667805387 0  0.8260544286221699 -0.008543663134562481 0  0.831720415905675 -0.008634807324656511 0  0.8378167080097026 -0.008729817306667463 0  0.8432709709919499 -0.008812108559864256 0  0.8494209576248264 -0.008901791974276371 0  0.8549745826348545 -0.008979924427376591 0  0.8608814329347291 -0.009060026011188804 0  0.8667998142885592 -0.009137155111096256 0  0.8723460990452367 -0.009206568509458774 0  0.8784989383774584 -0.009280301817794542 0  0.8839552890388401 -0.009342788637451834 0  0.8900456692707091 -0.009409293585850673 0  0.8957233874467343 -0.009468190513990782 0  0.9014754209053449 -0.009524786393944277 0  0.9075213579987256 -0.009580921173179099 0  0.9129954731058688 -0.009628765913494807 0  0.9191593188847452 -0.009679229788646495 0  0.9246655330424429 -0.009721240864333262 0  0.9306503084472221 -0.009763603884533442 0  0.9364847200361547 -0.009801580348484516 0  0.9420914259676206 -0.009834972127394636 0  0.948219177636862 -0.009867976960504428 0  0.9536688877131657 -0.009894257783109666 0  0.9597979104438458 -0.009920349306153329 0  0.9654020314719589 -0.009940987600901847 0  0.9712398170272581 -0.009959209624459757 0  0.9772219132298864 -0.009974407121723252 0  0.9827297975109929 -0.009985285083248089 0  0.9888934840407251 -0.009993913310034224 0  0.9943667421923366 -0.009998434045983932 0  1.000414962337846 -0.009999991502249178 0  1.00616395254491 -0.009998125110441144 0  1.011844857354635 -0.009993077234903055 0  1.017933801412069 -0.009984132829796667 0  1.023390946643176 -0.00997301205183276 0  1.029544679732296 -0.009956955598792184 0  1.035089558108845 -0.009939300412459717 0  1.041010936359372 -0.009917116481575694 0  1.04691554237944 -0.00989157814857561 0  1.052471258615448 -0.009864440751261633 0  1.05862104751389 -0.009830897850136421 0  1.064075481579663 -0.009798076706746352 0  1.070173358231585 -0.009757978136698224 0  1.075837941143087 -0.00971752009646258 0  1.081604377355612 -0.009673173917302162 0  1.087640686528322 -0.009623351755525641 0  1.093119387704205 -0.009575135453199036 0  1.099284093826516 -0.009517491101966447 0  1.104783734376909 -0.009463052176492596 0  1.110779897618174 -0.009400480030121557 0  1.116599992234411 -0.00933655469875222 0  1.122217899723542 -0.009271889359757672 0  1.128339818747432 -0.009198135031144493 0  1.133789446190431 -0.00912961705214143 0  1.139923317158062 -0.009049295973540348 0  1.145515844317945 -0.008973134373133167 0  1.151367773813766 -0.008890475161473248 0  1.157336906671575 -0.008803064948780913 0  1.16285160438384 -0.008719557366803981 0  1.16901331600552 -0.008623157866544266 0  1.174481522907442 -0.00853490108265173 0  1.180539122189597 -0.008434191931863186 0  1.186271617394136 -0.008336073959344166 0  1.191966996821913 -0.008235914041393521 0  1.198046448076202 -0.008126091334838595 0  1.203505695906331 -0.008024945109277802 0  1.209661806077474 -0.007908057515838151 0  1.21519584913737 -0.007800455577732041 0  1.221132109188887 -0.00768241304184519 0  1.227019087412133 -0.007562711583992629 0  1.232585135446325 -0.007447155722966398 0  1.238729389023077 -0.007316953404904543 0  1.244180486899644 -0.007199156086382225 0  1.250286093435722 -0.007064709646262071 0  1.255932842016573 -0.006938052500145445 0  1.261716857103797 -0.006806053534187844 0  1.26773845151126 -0.006666245775332091 0  1.273222687278595 -0.006536836953056475 0  1.279386853652711 -0.00638906998029936 0  1.284876650734994 -0.006255450389977176 0  1.290887326898431 -0.00610702037198264 0  1.296685536664392 -0.00596177282270944 0  1.30231949087952 -0.005818744638503708 0  1.308431215520824 -0.005661527839665159 0  
[...]
<PointData  Vectors="Traction"> 
<DataArray  type="Float64"  Name="Traction"  NumberOfComponents="3" format="ascii">-2.6284954707362637e-06 1.5639722834085726e-02 0.0000000000000000e+00  -2.6284954707362637e-06 1.5639722834085726e-02 0.0000000000000000e+00  -4.8760950605839213e-09 -8.0758558008672023e-09 0.0000000000000000e+00  -4.8760950605839213e-09 -8.0758558008672023e-09 0.0000000000000000e+00  -8.5966556774622711e-04 2.9161154839244349e-02 0.0000000000000000e+00  -1.1499328270545891e-03 2.7382302342486779e-02 0.0000000000000000e+00  -1.2521591571687184e-03 2.0002225466698560e-02 0.0000000000000000e+00  -2.6476936138148371e-03 3.0130940008243096e-02 0.0000000000000000e+00  -1.6189090420787541e-03 1.4915631071741719e-02 0.0000000000000000e+00  -3.9734897015557130e-03 3.0160201712435115e-02 0.0000000000000000e+00  -3.2510451140482875e-03 2.1542904105644595e-02 0.0000000000000000e+00  -3.7320264594626670e-03 2.1209077349934585e-02 0.0000000000000000e+00  -4.1624556339096026e-03 2.1129457164069301e-02 0.0000000000000000e+00  -5.1203731434148903e-03 2.3109371700426880e-02 0.0000000000000000e+00  -5.3011744481242188e-03 2.1814692963012590e-02 0.0000000000000000e+00  -5.5833909308917688e-03 2.1131234785180031e-02 0.0000000000000000e+00  -6.1963510671508857e-03 2.1472919904974193e-02 0.0000000000000000e+00  -8.6424668881585620e-03 2.7871356200372521e-02 0.0000000000000000e+00  -5.8548103599993318e-03 1.7684675690523430e-02 0.0000000000000000e+00  -9.8385142604340316e-03 2.7677463832988223e-02 0.0000000000000000e+00  -6.1343829410475470e-03 1.6205930080925357e-02 0.0000000000000000e+00  -1.0870850678001434e-02 2.7052276690363031e-02 0.0000000000000000e+00  -7.9163402072649301e-03 1.8691127861738044e-02 0.0000000000000000e+00  -8.4680625373233787e-03 1.8800095090203455e-02 0.0000000000000000e+00  -1.2154861668791464e-02 2.5629965175471493e-02 0.0000000000000000e+00  -9.2530553745593172e-03 1.8543305228117448e-02 0.0000000000000000e+00  -9.0820393355531322e-03 1.7256109917669037e-02 0.0000000000000000e+00  -1.1854543884408873e-02 2.1411661429058454e-02 0.0000000000000000e+00  -1.2568819988565721e-02 2.1613784742715636e-02 0.0000000000000000e+00  -1.1637615047720120e-02 1.9214773269179034e-02 0.0000000000000000e+00  -1.1830897520226797e-02 1.8663227108886401e-02 0.0000000000000000e+00  -1.6215120237353838e-02 2.4585790953495435e-02 0.0000000000000000e+00  -1.2460630806601133e-02 1.8186424717648152e-02 0.0000000000000000e+00  -1.3307694438335285e-02 1.8668728114620892e-02 0.0000000000000000e+00  -1.2979618604450628e-02 1.7556032473399499e-02 0.0000000000000000e+00  -1.8539992464577517e-02 2.3949849843223080e-02 0.0000000000000000e+00  -1.3804058006452465e-02 1.7284540075897928e-02 0.0000000000000000e+00  -1.4353388027634454e-02 1.7316907228614606e-02 0.0000000000000000e+00  -1.4657267568046792e-02 1.7048854587089511e-02 0.0000000000000000e+00  -1.6459671652452497e-02 1.8293645891613437e-02 0.0000000000000000e+00  -1.5904392410431109e-02 1.7076110144449888e-02 0.0000000000000000e+00  -1.6492354190448720e-02 1.7178440552432936e-02 0.0000000000000000e+00  -1.7412772935077276e-02 1.7330604822480011e-02 0.0000000000000000e+00  -1.8649972748058047e-02 1.7978032724496044e-02 0.0000000000000000e+00  -1.7861774433961582e-02 1.6680768829588865e-02 0.0000000000000000e+00  -1.7693073251173884e-02 1.5934117734723134e-02 0.0000000000000000e+00  -1.8664353026733929e-02 1.6195958595845782e-02 0.0000000000000000e+00  -1.9214746297190645e-02 1.6073068213259500e-02 0.0000000000000000e+00  -2.0609005222545326e-02 1.6585330466330022e-02 0.0000000000000000e+00  -2.0164932982513331e-02 1.5691267433721755e-02 0.0000000000000000e+00  -2.0107880492563811e-02 1.5140130060617114e-02 0.0000000000000000e+00  -1.8975458524082261e-02 1.3729115710702441e-02 0.0000000000000000e+00  -2.6673078403565212e-02 1.8574841883512359e-02 0.0000000000000000e+00  -1.9189592275140072e-02 1.2944603783991931e-02 0.0000000000000000e+00  -2.2744999475431942e-02 1.4737286353563922e-02 0.0000000000000000e+00  -2.2785252168822556e-02 1.4228466745237351e-02 0.0000000000000000e+00  -2.1890301423567928e-02 1.3204035070326265e-02 0.0000000000000000e+00  -2.1663124871852138e-02 1.2592874193613747e-02 0.0000000000000000e+00  -2.4339442964924976e-02 1.3539856177215828e-02 0.0000000000000000e+00  -2.3307310723736679e-02 1.2465109324893286e-02 0.0000000000000000e+00  -2.3637362398135225e-02 1.2211867026268551e-02 0.0000000000000000e+00  -2.5408791357565259e-02 1.2543025475514891e-02 0.0000000000000000e+00  -2.4461316373444432e-02 1.1617216101705796e-02 0.0000000000000000e+00  -2.2175881146714788e-02 1.0102896470510176e-02 0.0000000000000000e+00  -3.2406616671153549e-02 1.4092913148785113e-02 0.0000000000000000e+00  -2.2887023278234272e-02 9.6110730176190515e-03 0.0000000000000000e+00  -2.5699495970740786e-02 1.0283604647392116e-02 0.0000000000000000e+00  -2.5665623534013155e-02 9.7756821870083523e-03 0.0000000000000000e+00  -2.5728881180415886e-02 9.2989004642733391e-03 0.0000000000000000e+00  -2.7618293931634619e-02 9.4730285350118522e-03 0.0000000000000000e+00  -2.6663911362116530e-02 8.6988715725255707e-03 0.0000000000000000e+00  -2.6329864260576326e-02 8.1439933987786962e-03 0.0000000000000000e+00  -2.8343335513771266e-02 8.2547523686005778e-03 0.0000000000000000e+00  -2.4372881092279586e-02 6.6723949388476653e-03 0.0000000000000000e+00  -3.4352482202841518e-02 8.9003166584367913e-03 0.0000000000000000e+00  -2.4063396481242415e-02 5.8816351218305878e-03 0.0000000000000000e+00  -2.7376407250328309e-02 6.2673982619745171e-03 0.0000000000000000e+00  -2.8942314816013868e-02 6.2291390390123245e-03 0.0000000000000000e+00  -2.2817827092209073e-02 4.5645433530771915e-03 0.0000000000000000e+00  -3.5374215563905062e-02 6.5429154827481911e-03 0.0000000000000000e+00  -2.4906749657185527e-02 4.2246895001339813e-03 0.0000000000000000e+00  -3.0160994285330447e-02 4.6425423391940326e-03 0.0000000000000000e+00  -2.4664016265606801e-02 3.4054391458729696e-03 0.0000000000000000e+00  -3.6283039016179637e-02 4.4646300613314762e-03 0.0000000000000000e+00  -2.3754377473315783e-02 2.5910826683993656e-03 0.0000000000000000e+00  -3.7677494101893555e-02 3.5251497107634685e-03 0.0000000000000000e+00  -2.3990407719014055e-02 1.9054883641416416e-03 0.0000000000000000e+00  -2.9309973179256238e-02 1.8923998762492543e-03 0.0000000000000000e+00  -3.0077926378812837e-02 1.4898392700431868e-03 0.0000000000000000e+00  -2.6277772316426272e-02 9.1947283172128696e-04 0.0000000000000000e+00  -3.6431070945115218e-02 7.6928868955912987e-04 0.0000000000000000e+00  -2.6579932529366759e-02 1.7197560579262387e-04 0.0000000000000000e+00  -2.7850481932314819e-02 -2.4899281662372612e-04 0.0000000000000000e+00  -2.8438349656659898e-02 -6.6031371116685321e-04 0.0000000000000000e+00  -2.9686881539051784e-02 -1.1125654824648409e-03 0.0000000000000000e+00  -3.0551902738248132e-02 -1.5909597692243805e-03 0.0000000000000000e+00  -2.4753561012580111e-02 -1.6479393597642674e-03 0.0000000000000000e+00  -3.6516213821880035e-02 -2.9849705916667802e-03 0.0000000000000000e+00  -2.5236262064388757e-02 -2.4069186318114505e-03 0.0000000000000000e+00  -2.9927067041772337e-02 -3.2833213073397557e-03 0.0000000000000000e+00  -3.0198241257127521e-02 -3.7756288756634108e-03 0.0000000000000000e+00  -2.6324880522815498e-02 -3.6927499058330782e-03 0.0000000000000000e+00  -3.6590053336982238e-02 -5.6345973542337507e-03 0.0000000000000000e+00  -2.6152474915816532e-02 -4.4243288322593473e-03 0.0000000000000000e+00  -2.6022741316877828e-02 -4.8271332336399944e-03 0.0000000000000000e+00  -3.7138668408725484e-02 -7.4221642278609968e-03 0.0000000000000000e+00  -2.2995120043254821e-02 -4.9827202912627808e-03 0.0000000000000000e+00  -3.6802849350103091e-02 -8.5257452730614375e-03 0.0000000000000000e+00  -2.4649933319711090e-02 -6.1016609525173567e-03 0.0000000000000000e+00  -2.9795179561429685e-02 -7.8376244975138579e-03 0.0000000000000000e+00  -2.6814659655736033e-02 -7.5048658919675644e-03 0.0000000000000000e+00  -2.8064013695393845e-02 -8.3026111470101624e-03 0.0000000000000000e+00  -2.8680905103918373e-02 -8.9213721984012541e-03 0.0000000000000000e+00  -2.5236518453411655e-02 -8.3374498494686693e-03 0.0000000000000000e+00  -3.4672522347583994e-02 -1.2029291464538374e-02 0.0000000000000000e+00  -2.5801639151278911e-02 -9.4249912621096037e-03 0.0000000000000000e+00  -2.6082096087891651e-02 -1.0015592335453051e-02 0.0000000000000000e+00  -2.6501878845089383e-02 -1.0645382444545449e-02 0.0000000000000000e+00  -2.6701390037593958e-02 -1.1192737302652305e-02 0.0000000000000000e+00  -2.5973610195817860e-02 -1.1407189009284400e-02 0.0000000000000000e+00  -2.5016831003923663e-02 -1.1462236614152256e-02 0.0000000000000000e+00  -2.5929202062830288e-02 -1.2379810395306376e-02 0.0000000000000000e+00  -2.5112786841469222e-02 -1.2622297072467410e-02 0.0000000000000000e+00  -2.4759872505990089e-02 -1.2984806052713006e-02 0.0000000000000000e+00  -2.5661443954855014e-02 -1.3996725474714880e-02 0.0000000000000000e+00  -2.2012461651021081e-02 -1.2544378365057915e-02 0.0000000000000000e+00  -3.0542654335738467e-02 -1.8052817912522008e-02 0.0000000000000000e+00  -2.1213213354397947e-02 -1.3031974346884068e-02 0.0000000000000000e+00  -2.1428159783313822e-02 -1.3679760523719074e-02 0.0000000000000000e+00  -2.9309325520929731e-02 -1.9300991960757026e-02 0.0000000000000000e+00  -2.0747585931179667e-02 -1.4213061909254306e-02 0.0000000000000000e+00  -2.2561616486374822e-02 -1.6072259090956068e-02 0.0000000000000000e+00  -2.2319625824834832e-02 -1.6493600163485261e-02 0.0000000000000000e+00  -2.2224515912298851e-02 -1.6985623426585602e-02 0.0000000000000000e+00  -2.1520184936108366e-02 -1.7198954371447795e-02 0.0000000000000000e+00  -2.1155367567912114e-02 -1.7547559414055679e-02 0.0000000000000000e+00  -2.1197584895236279e-02 -1.8138054546019227e-02 0.0000000000000000e+00  -1.8138228909303854e-02 -1.6191212382491334e-02 0.0000000000000000e+00  -2.4823440663528887e-02 -2.2953860012852781e-02 0.0000000000000000e+00  -1.7715366300692190e-02 -1.7057719080865025e-02 0.0000000000000000e+00  -1.8019115098383814e-02 -1.8065653711014998e-02 0.0000000000000000e+00  -1.7981628849063104e-02 -1.8643421015204376e-02 0.0000000000000000e+00  -1.7928040136331237e-02 -1.9262854544370465e-02 0.0000000000000000e+00  -1.7105800323926293e-02 -1.9209294833316504e-02 0.0000000000000000e+00  -1.6825516779853920e-02 -1.9597597493394674e-02 0.0000000000000000e+00  -1.6918320839087907e-02 -2.0455851477019463e-02 0.0000000000000000e+00  -1.4771100366315966e-02 -1.8667744525268131e-02 0.0000000000000000e+00  -1.9838789856267938e-02 -2.6109890334148348e-02 0.0000000000000000e+00  -1.3620484849854710e-02 -1.8665148508398753e-02 0.0000000000000000e+00  -1.3526601052936299e-02 -1.9445416562794280e-02 0.0000000000000000e+00  -1.7966730248721099e-02 -2.6877741472447276e-02 0.0000000000000000e+00  -1.2690960052905412e-02 -1.9878970317151839e-02 0.0000000000000000e+00  -1.3328144068435436e-02 -2.1974774935935495e-02 0.0000000000000000e+00  -1.2764954600318876e-02 -2.2127024107243657e-02 0.0000000000000000e+00  -1.1242437175750693e-02 -2.0605296365711321e-02 0.0000000000000000e+00  -1.4677484154078123e-02 -2.8255540669375058e-02 0.0000000000000000e+00  -1.0276756387991397e-02 -2.0977302624512147e-02 0.0000000000000000e+00  -1.0312230250869516e-02 -2.2380912674665576e-02 0.0000000000000000e+00  -9.7658204072839563e-03 -2.2529783673544183e-02 0.0000000000000000e+00  -9.0670243369591740e-03 -2.2428826281210252e-02 0.0000000000000000e+00  -1.1489872335483223e-02 -3.0183195135192579e-02 0.0000000000000000e+00  -7.3243815493567741e-03 -2.0814842044082568e-02 0.0000000000000000e+00  -7.2481098565739879e-03 -2.2251683534373821e-02 0.0000000000000000e+00  -7.4422456908935586e-03 -2.4921760054417215e-02 0.0000000000000000e+00  -6.6810048477891782e-03 -2.4628065557252072e-02 0.0000000000000000e+00  -5.1040569479713083e-03 -2.0765953641675775e-02 0.0000000000000000e+00  -6.6125986546659628e-03 -3.0252550632913839e-02 0.0000000000000000e+00  -4.0628846267797671e-03 -2.0857097206947627e-02 0.0000000000000000e+00  -4.1788225235256269e-03 -2.4853329343292738e-02 0.0000000000000000e+00  -3.5871679905320046e-03 -2.5090394435408014e-02 0.0000000000000000e+00  -2.7570162597275864e-03 -2.3567744223978337e-02 0.0000000000000000e+00  -2.0963559402064191e-03 -2.2998582015349323e-02 0.0000000000000000e+00  -1.7394855542738567e-03 -2.6263160127596039e-02 0.0000000000000000e+00  -9.5437975943055402e-04 -2.3793789333851907e-02 0.0000000000000000e+00  -4.2494490761686785e-04 -2.3812696503565774e-02 0.0000000000000000e+00  1.8852197225268985e-04 -2.5400924864891764e-02 0.0000000000000000e+00  7.3366750055177063e-04 -2.3661690662042326e-02 0.0000000000000000e+00  1.2849836156507096e-03 -2.3292180489616149e-02 0.0000000000000000e+00  2.5004176704440974e-03 -3.1931151628380686e-02 0.0000000000000000e+00  2.1718964951938885e-03 -2.1977885399522935e-02 0.0000000000000000e+00  2.9278244219749371e-03 -2.3258802614954707e-02 0.0000000000000000e+00  3.7399461333791394e-03 -2.5061145444925957e-02 0.0000000000000000e+00  4.0479054941476699e-03 -2.3221763243497069e-02 0.0000000000000000e+00  4.5315774369658638e-03 -2.2685108541609357e-02 0.0000000000000000e+00  5.8113590434205930e-03 -2.5774029192098129e-02 0.0000000000000000e+00  5.8662285682403083e-03 -2.3293764539428562e-02 0.0000000000000000e+00  6.4071616341606890e-03 -2.3273705175363243e-02 0.0000000000000000e+00  7.4833973483851984e-03 -2.4729812748334291e-02 0.0000000000000000e+00  7.5274249595398872e-03 -2.2973006475577748e-02 0.0000000000000000e+00  7.9522584638539364e-03 -2.2450054568925803e-02 0.0000000000000000e+00  1.1676745835219099e-02 -3.0669666458335076e-02 0.0000000000000000e+00  8.4521672665107041e-03 -2.0995652642370823e-02 0.0000000000000000e+00  9.5995018515515947e-03 -2.2207686744151502e-02 0.0000000000000000e+00  1.0918498044711615e-02 -2.3814459773311682e-02 0.0000000000000000e+00  1.0709486772957187e-02 -2.2035046398195233e-02 0.0000000000000000e+00  1.0958339261132873e-02 -2.1344032106562688e-02 0.0000000000000000e+00  1.3222281903739030e-02 -2.4388906801468643e-02 0.0000000000000000e+00  1.1379817033676930e-02 -1.9921089946006800e-02 0.0000000000000000e+00  1.6395575835229645e-02 -2.7506024978368855e-02 0.0000000000000000e+00  1.2503886133386013e-02 -2.0029307232693274e-02 0.0000000000000000e+00  1.3558802353049897e-02 -2.0798753035073024e-02 0.0000000000000000e+00  1.4850723538083442e-02 -2.1696548926840510e-02 0.0000000000000000e+00  1.4906011269795232e-02 -2.0789849120785124e-02 0.0000000000000000e+00  1.5545068071854301e-02 -2.0705354324715038e-02 0.0000000000000000e+00  1.6565472687265700e-02 -2.1029344482190574e-02 0.0000000000000000e+00  1.6607157387932940e-02 -2.0270928888245280e-02 0.0000000000000000e+00  1.6985000656741224e-02 -1.9905046567173380e-02 0.0000000000000000e+00  1.9320071162038120e-02 -2.1660031072112288e-02 0.0000000000000000e+00  1.7901016805533552e-02 -1.9261263748758362e-02 0.0000000000000000e+00  1.6415083356388038e-02 -1.6878775823606796e-02 0.0000000000000000e+00  2.5347858399191861e-02 -2.4963710786861309e-02 0.0000000000000000e+00  1.5928283768452702e-02 -1.5141491520161561e-02 0.0000000000000000e+00  2.5541898536788718e-02 -2.3394935450389679e-02 0.0000000000000000e+00  1.6131613902618316e-02 -1.4238708613452238e-02 0.0000000000000000e+00  2.7222979137221714e-02 -2.3116000023164513e-02 0.0000000000000000e+00  1.7838821043128797e-02 -1.4660958844533726e-02 0.0000000000000000e+00  2.1061629971465556e-02 -1.6695237772905862e-02 0.0000000000000000e+00  2.4019653718626778e-02 -1.8247108383722972e-02 0.0000000000000000e+00  2.1803974575039409e-02 -1.5921317026961319e-02 0.0000000000000000e+00  2.2281266085597801e-02 -1.5645037971701335e-02 0.0000000000000000e+00  2.5602803138906022e-02 -1.7246330122508688e-02 0.0000000000000000e+00  2.1187587045869330e-02 -1.3721642670156565e-02 0.0000000000000000e+00  3.0645607681909274e-02 -1.9133347276007948e-02 0.0000000000000000e+00  1.9009067730667982e-02 -1.1418912759053563e-02 0.0000000000000000e+00  3.1936851424289439e-02 -1.8456330317716645e-02 0.0000000000000000e+00  1.9323694258303881e-02 -1.0728521173172226e-02 0.0000000000000000e+00  3.2196416137544960e-02 -1.7167769403480474e-02 0.0000000000000000e+00  2.1979950849528945e-02 -1.1288588567679335e-02 0.0000000000000000e+00  2.3290515922981800e-02 -1.1482297691250701e-02 0.0000000000000000e+00  3.3085284572287578e-02 -1.5639931130818154e-02 0.0000000000000000e+00  2.0566390396443028e-02 -9.3334312762069147e-03 0.0000000000000000e+00  3.3941279798551403e-02 -1.4767204544136586e-02 0.0000000000000000e+00  2.3273972419518132e-02 -9.7121346092049511e-03 0.0000000000000000e+00  2.7962739087446235e-02 -1.1139042459910323e-02 0.0000000000000000e+00  2.6659647611141851e-02 -1.0188478499668176e-02 0.0000000000000000e+00  2.4152790217371382e-02 -8.8485538004575235e-03 0.0000000000000000e+00  2.7617109905913779e-02 -9.6307117550397635e-03 0.0000000000000000e+00  2.8229367920954998e-02 -9.3155664663638407e-03 0.0000000000000000e+00  2.8898942530158907e-02 -9.0808801940690017e-03 0.0000000000000000e+00  2.5490095581468909e-02 -7.6106021968759020e-03 0.0000000000000000e+00  3.5312700545319979e-02 -9.9855937103641712e-03 0.0000000000000000e+00  2.6336176089572869e-02 -7.0455528992529005e-03 0.0000000000000000e+00  2.7569956948928113e-02 -6.9148807076484459e-03 0.0000000000000000e+00  2.8025925168711930e-02 -6.5938690561579841e-03 0.0000000000000000e+00  2.8083141143885278e-02 -6.1560658063634695e-03 0.0000000000000000e+00  2.8172450567793536e-02 -5.7296799188392509e-03 0.0000000000000000e+00  3.0372366744362441e-02 -5.7104108520310394e-03 0.0000000000000000e+00  2.7717070217321494e-02 -4.7417439986523029e-03 0.0000000000000000e+00  3.8157678663544504e-02 -5.8946028874601155e-03 0.0000000000000000e+00  2.3588367048106122e-02 -3.3093379382781170e-03 0.0000000000000000e+00  3.7094354142049819e-02 -4.6370825793746896e-03 0.0000000000000000e+00  2.4859554766617355e-02 -2.6983413631257625e-03 0.0000000000000000e+00  2.8618475235194792e-02 -2.6830225666872156e-03 0.0000000000000000e+00  2.8484473054295013e-02 -2.2360775901137768e-03 0.0000000000000000e+00  2.7690017553809364e-02 -1.7396597243589866e-03 0.0000000000000000e+00  3.6818619619981549e-02 -1.7714207816292950e-03 0.0000000000000000e+00  2.6996090796176767e-02 -8.9410777860444231e-04 0.0000000000000000e+00  2.8835022627580514e-02 -5.3579358581852413e-04 0.0000000000000000e+00  2.8671495383579305e-02 -1.2340162347070866e-04 0.0000000000000000e+00  2.8581357614496029e-02 2.7043309358667041e-04 0.0000000000000000e+00  2.8580906136137813e-02 6.2770604067926053e-04 0.0000000000000000e+00  3.0418058281333534e-02 1.0737247012631225e-03 0.0000000000000000e+00  2.9569403269396482e-02 1.4476797367037031e-03 0.0000000000000000e+00  2.5794591507723844e-02 1.6113004816356539e-03 0.0000000000000000e+00  3.6141382932412799e-02 2.7475262366578944e-03 0.0000000000000000e+00  2.4847081198236084e-02 2.2542902877131141e-03 0.0000000000000000e+00  2.9790831620293286e-02 3.1809054948311790e-03 0.0000000000000000e+00  2.7080603227441692e-02 3.3097837900993095e-03 0.0000000000000000e+00  2.7729013965864944e-02 3.7860128791702028e-03 0.0000000000000000e+00  2.8809811365181969e-02 4.3706607368613369e-03 0.0000000000000000e+00  2.5325669849299546e-02 4.2371193755099115e-03 0.0000000000000000e+00  3.4965213446091555e-02 6.4207268760347273e-03 0.0000000000000000e+00  2.3442696455442478e-02 4.6360406901102711e-03 0.0000000000000000e+00  2.8147920612468572e-02 6.0784715870240806e-03 0.0000000000000000e+00  2.5885864979508857e-02 6.0182499686868346e-03 0.0000000000000000e+00  2.4304331591905429e-02 6.0367927317000322e-03 0.0000000000000000e+00  3.5050466748351605e-02 9.1780621342897502e-03 0.0000000000000000e+00  2.5398290769192356e-02 7.0900989273928270e-03 0.0000000000000000e+00  2.4609773447932380e-02 7.3220253370048184e-03 0.0000000000000000e+00  3.34697999