<?xml version="1.0"?>
<VTKFile type="UnstructuredGrid"  version="0.1"  >
<UnstructuredGrid>
<Piece  NumberOfPoints="4276" NumberOfCells="6768">
<Points>
<DataArray  type="Float64"  NumberOfComponents="3"  format="ascii">0 0.01 0  10 0.01 0  0 1.025541181621114 0  10 1.025541181621114 0  0.007129524987038337 0.009997491741717768 0  0.01258064459049757 0.00999219056738478 0  0.01872173241756402 0.009982708334120727 0  0.02429919625640796 0.009970876572043954 0  0.03017238705920286 0.009955108531615313 0  0.03612352734296466 0.0099356743715591 0  0.04164979236492252 0.009914517792428084 0  0.04780928449023854 0.009887415768096998 0  0.05327287671237849 0.009860276931383746 0  0.0593436395885565 0.009826715421083503 0  0.06505608699933001 0.009791870631895848 0  0.07077243060783153 0.009753845329312128 0  0.07684085351634186 0.009710036052663748 0  0.08230528612367993 0.009667566921662384 0  0.08846525752759338 0.009616276826848907 0  0.09398926586603956 0.0095672187064786 0  0.09994377871281757 0.009511110804477986 0  0.10581288515308 0.009452550633355501 0  0.1113930001121819 0.009393893683773193 0  0.1175326299024069 0.009326020378011352 0  0.122983161250664 0.009262856809916281 0  0.1290978349347763 0.009188765415777931 0  0.1347300222736412 0.00911751981665075 0  0.1405327472005438 0.009041131768776852 0  0.1465421455697866 0.008958856277281909 0  0.1520341809431761 0.008880870879718691 0  0.1581991754706344 0.00879018143976357 0  0.1636834803794234 0.008706732874359017 0  0.1697073563005918 0.008612096527554045 0  0.1754901396361989 0.008518345936558386 0  0.1811391035120075 0.008424050210098115 0  0.1872444279222087 0.00831915423323064 0  0.1926961446341008 0.008222899998379215 0  0.198841090009393 0.008111516418624823 0  0.2044064770158165 0.008008028244452866 0  0.2102948627703611 0.007895869216798803 0  0.2162299794791283 0.007780085801116003 0  0.2217647046821167 0.007669675498109103 0  0.2279204403470532 0.007544154739747676 0  0.2333791472114919 0.007430485124751003 0  0.2394590817234977 0.0073013084386626 0  0.245152498789355 0.007177928079207972 0  0.2508861115607116 0.007051356111670669 0  0.2569419868439766 0.006915186417023598 0  0.2624099649457279 0.006790084113692359 0  0.2685711825796066 0.006646722567663751 0  0.274083748205357 0.006516341894728842 0  0.2800541704182985 0.00637292855786236 0  0.2859022845836161 0.006230279166502627 0  0.291495955429921 0.006091868246150131 0  0.2976275706217687 0.005937986548763313 0  0.3030757324287757 0.005799406374294222 0  0.3091980118239236 0.005641654227187252 0  0.3148109405089491 0.005495191514879527 0  0.3206341933715942 0.005341435282378838 0  0.3266248575896781 0.005181393525330103 0  0.3321252080346692 0.005032833254881577 0  0.3382880718234609 0.004864596209960478 0  0.3437628463580178 0.004713611578807419 0  0.3498021006600692 0.004545443593512952 0  0.3555594631656461 0.004383601001460968 0  0.3612291099056053 0.004222822711549606 0  0.3673210805066339 0.004048576418709386 0  0.3727746135437823 0.003891330909934085 0  0.3789246700786391 0.003712634483246944 0  0.3844721023230384 0.00355025746928806 0  0.3903845048135511 0.003376011435332509 0  0.3962935688476314 0.003200699755406988 0  0.4018430601204535 0.00303505085978487 0  0.4079921977692303 0.002850427660455144 0  0.4134449905916002 0.002685819499171436 0  0.4195385366679084 0.002500937932218923 0  0.425204482428441 0.002328206591247292 0  0.4309651825948974 0.00215183074136113 0  0.4370014133195289 0.001966263547608745 0  0.4424769325836848 0.00179732019881714 0  0.4486395183564056 0.001606544730410899 0  0.4541373275735043 0.001435838569361521 0  0.4601308451156257 0.001249254088784412 0  0.4659488863550298 0.001067707976620331 0  0.471564807260988 0.0008921302908496037 0  0.4776843759254726 0.0007004920228137959 0  0.4831317484445766 0.0005296836585198918 0  0.4892643513384632 0.0003372062279158936 0  0.4948528283485032 0.000161696161435303 0  0.5007056813361916 -2.216943068070812e-05 0  0.5066699093509902 -0.000209526046556915 0  0.5121845298566023 -0.0003826949545447442 0  0.5183439831944545 -0.0005759742926309219 0  0.5238088617282698 -0.0007472800272428554 0  0.5298681543527348 -0.0009369594486414562 0  0.5355929349139432 -0.001115856450691032 0  0.5412927239341832 -0.001293613669039852 0  0.5473668732672543 -0.001482588207084091 0  0.5528259073001393 -0.001651967505962102 0  0.5589819336317072 -0.001842386787779294 0  0.5645100189486582 -0.002012797049529044 0  0.5704524332663232 -0.002195301346534757 0  0.5763298911552834 -0.002375058665203144 0  0.5819006708717119 -0.002544689651648297 0  0.5880413281562127 -0.002730768313747055 0  0.5934904284812221 -0.002895042191696308 0  0.5995995320960693 -0.003078202338538874 0  0.605236779888003 -0.003246210954182579 0  0.6110299855290301 -0.003417806240976177 0  0.6170432999212266 -0.00359472323302265 0  0.6225307972792151 -0.00375505261922207 0  0.6286944373476531 -0.003933803567825084 0  0.6341794289295242 -0.004091634709336539 0  0.6401977648984302 -0.004263413669385436 0  0.6459846030577213 -0.004427148756161272 0  0.6516277670629291 -0.004585409549508515 0  0.6577342305863492 -0.004755038487876419 0  0.6631843111407589 -0.004904958327357115 0  0.6693271588517591 -0.005072208653571043 0  0.6748942591145469 -0.005222152905474348 0  0.6807781354428797 -0.005378892074409919 0  0.6867158102497221 -0.005535201343768038 0  0.6922478556369909 -0.005679100421160843 0  0.6984036264198542 -0.005837205328254034 0  0.7038624132928571 -0.005975584427524931 0  0.7099402809449575 -0.006127588021236129 0  0.7156361945945205 -0.006268012368771779 0  0.7213667017809595 -0.006407263887957157 0  0.7274241898103784 -0.006552202568912044 0  0.7328913375361901 -0.006680980644346233 0  0.7390522654079078 -0.006823736587757829 0  0.7445663161830813 -0.006949337256267011 0  0.7505345306161221 -0.007082931996795786 0  0.7563856967966242 -0.007211490056377221 0  0.7619775509571868 -0.007332073958440476 0  0.7681106054434813 -0.007461725199742056 0  0.7735594228940573 -0.007574589702563127 0  0.7796809699364847 -0.007698739982391196 0  0.7852974086111042 -0.007810142587226769 0  0.7911178568436495 -0.007923025648348906 0  0.797112403703894 -0.008036515862006795 0  0.8026119630288198 -0.008138129173272899 0  0.8087760180262171 -0.008249131188213875 0  0.814253500572072 -0.008345174877796967 0  0.8202905515677629 -0.008448166667805387 0  0.8260544286221699 -0.008543663134562481 0  0.831720415905675 -0.008634807324656511 0  0.8378167080097026 -0.008729817306667463 0  0.8432709709919499 -0.008812108559864256 0  0.8494209576248264 -0.008901791974276371 0  0.8549745826348545 -0.008979924427376591 0  0.8608814329347291 -0.009060026011188804 0  0.8667998142885592 -0.009137155111096256 0  0.8723460990452367 -0.009206568509458774 0  0.8784989383774584 -0.009280301817794542 0  0.8839552890388401 -0.009342788637451834 0  0.8900456692707091 -0.009409293585850673 0  0.8957233874467343 -0.009468190513990782 0  0.9014754209053449 -0.009524786393944277 0  0.9075213579987256 -0.009580921173179099 0  0.9129954731058688 -0.009628765913494807 0  0.9191593188847452 -0.009679229788646495 0  0.9246655330424429 -0.009721240864333262 0  0.9306503084472221 -0.009763603884533442 0  0.9364847200361547 -0.009801580348484516 0  0.9420914259676206 -0.009834972127394636 0  0.948219177636862 -0.009867976960504428 0  0.9536688877131657 -0.009894257783109666 0  0.9597979104438458 -0.009920349306153329 0  0.9654020314719589 -0.009940987600901847 0  0.9712398170272581 -0.009959209624459757 0  0.9772219132298864 -0.009974407121723252 0  0.9827297975109929 -0.009985285083248089 0  0.9888934840407251 -0.009993913310034224 0  0.9943667421923366 -0.009998434045983932 0  1.000414962337846 -0.009999991502249178 0  1.00616395254491 -0.009998125110441144 0  1.011844857354635 -0.009993077234903055 0  1.017933801412069 -0.009984132829796667 0  1.023390946643176 -0.00997301205183276 0  1.029544679732296 -0.009956955598792184 0  1.035089558108845 -0.009939300412459717 0  1.041010936359372 -0.009917116481575694 0  1.04691554237944 -0.00989157814857561 0  1.052471258615448 -0.009864440751261633 0  1.05862104751389 -0.009830897850136421 0  1.064075481579663 -0.009798076706746352 0  1.070173358231585 -0.009757978136698224 0  1.075837941143087 -0.00971752009646258 0  1.081604377355612 -0.009673173917302162 0  1.087640686528322 -0.009623351755525641 0  1.093119387704205 -0.009575135453199036 0  1.099284093826516 -0.009517491101966447 0  1.104783734376909 -0.009463052176492596 0  1.110779897618174 -0.009400480030121557 0  1.116599992234411 -0.00933655469875222 0  1.122217899723542 -0.009271889359757672 0  1.128339818747432 -0.009198135031144493 0  1.133789446190431 -0.00912961705214143 0  1.139923317158062 -0.009049295973540348 0  1.145515844317945 -0.008973134373133167 0  1.151367773813766 -0.008890475161473248 0  1.157336906671575 -0.008803064948780913 0  1.16285160438384 -0.008719557366803981 0  1.16901331600552 -0.008623157866544266 0  1.174481522907442 -0.00853490108265173 0  1.180539122189597 -0.008434191931863186 0  1.186271617394136 -0.008336073959344166 0  1.191966996821913 -0.008235914041393521 0  1.198046448076202 -0.008126091334838595 0  1.203505695906331 -0.008024945109277802 0  1.209661806077474 -0.007908057515838151 0  1.21519584913737 -0.007800455577732041 0  1.221132109188887 -0.00768241304184519 0  1.227019087412133 -0.007562711583992629 0  1.232585135446325 -0.007447155722966398 0  1.238729389023077 -0.007316953404904543 0  1.244180486899644 -0.007199156086382225 0  1.250286093435722 -0.007064709646262071 0  1.255932842016573 -0.006938052500145445 0  1.261716857103797 -0.006806053534187844 0  1.26773845151126 -0.006666245775332091 0  1.273222687278595 -0.006536836953056475 0  1.279386853652711 -0.00638906998029936 0  1.284876650734994 -0.006255450389977176 0  1.290887326898431 -0.00610702037198264 0  1.296685536664392 -0.00596177282270944 0  1.30231949087952 -0.005818744638503708 0  1.308431215520824
[...]
<PointData  Vectors="Traction"> 
<DataArray  type="Float64"  Name="Traction"  NumberOfComponents="3" format="ascii">1.9076443812391993e-06 1.1476342729745218e-02 0.0000000000000000e+00  1.9076443812391993e-06 1.1476342729745218e-02 0.0000000000000000e+00  3.4680708212923083e-09 2.6107832422638820e-09 0.0000000000000000e+00  3.4680708212923083e-09 2.6107832422638820e-09 0.0000000000000000e+00  -6.0477478942533162e-04 1.7639657058908069e-02 0.0000000000000000e+00  -9.2124885401429954e-04 1.6222998989414077e-02 0.0000000000000000e+00  -1.2495846189996536e-03 1.5021983620417765e-02 0.0000000000000000e+00  -1.7668832246624669e-03 1.6596038181408902e-02 0.0000000000000000e+00  -1.8913354157696846e-03 1.4265864441363347e-02 0.0000000000000000e+00  -3.0642610678334060e-03 1.9424351562799202e-02 0.0000000000000000e+00  -2.2979422222538155e-03 1.2706033206471238e-02 0.0000000000000000e+00  -3.1198894217588568e-03 1.4912026283658064e-02 0.0000000000000000e+00  -3.7276205006893069e-03 1.5830738153125815e-02 0.0000000000000000e+00  -3.4790857305877620e-03 1.3182538655731438e-02 0.0000000000000000e+00  -5.4546730207149811e-03 1.8918881651541427e-02 0.0000000000000000e+00  -3.8519128037357705e-03 1.2332659099059468e-02 0.0000000000000000e+00  -6.6388562451709992e-03 1.9306083608369957e-02 0.0000000000000000e+00  -4.6137230705238915e-03 1.2598926465634000e-02 0.0000000000000000e+00  -5.6971008521189076e-03 1.4422133246039118e-02 0.0000000000000000e+00  -6.7937511480620381e-03 1.5976571790834962e-02 0.0000000000000000e+00  -6.3008124064862425e-03 1.3897835159912776e-02 0.0000000000000000e+00  -6.8199488715235072e-03 1.4141496462906054e-02 0.0000000000000000e+00  -7.7589916214422161e-03 1.5195154425516482e-02 0.0000000000000000e+00  -8.1509617996296073e-03 1.5064429346397686e-02 0.0000000000000000e+00  -7.9166824126338190e-03 1.4008246048774825e-02 0.0000000000000000e+00  -8.2103756277048176e-03 1.3815888942209146e-02 0.0000000000000000e+00  -8.7228017169658310e-03 1.3968339280588622e-02 0.0000000000000000e+00  -8.5549241766241478e-03 1.3069668304487145e-02 0.0000000000000000e+00  -1.2313292584222547e-02 1.7820570265956102e-02 0.0000000000000000e+00  -9.4525753893030268e-03 1.3237870584113191e-02 0.0000000000000000e+00  -1.0055285919272862e-02 1.3518592488673995e-02 0.0000000000000000e+00  -9.3882942854463594e-03 1.2153407396486722e-02 0.0000000000000000e+00  -1.0016999560631514e-02 1.2348036019263818e-02 0.0000000000000000e+00  -1.4582648188813880e-02 1.7125345446122226e-02 0.0000000000000000e+00  -1.0543078578415776e-02 1.2062229858017763e-02 0.0000000000000000e+00  -1.0679525585555205e-02 1.1734750825604424e-02 0.0000000000000000e+00  -1.6051997788899073e-02 1.6882443209519572e-02 0.0000000000000000e+00  -1.0195758767592440e-02 1.0402093554736244e-02 0.0000000000000000e+00  -1.6770791918166890e-02 1.6526390948868142e-02 0.0000000000000000e+00  -1.0473809488425950e-02 9.9557091487217590e-03 0.0000000000000000e+00  -1.7698700864004841e-02 1.6140884015304519e-02 0.0000000000000000e+00  -1.2553305115469340e-02 1.1078000297435938e-02 0.0000000000000000e+00  -1.3009358213612923e-02 1.1019967119371582e-02 0.0000000000000000e+00  -1.8775754484927885e-02 1.5322442487963972e-02 0.0000000000000000e+00  -1.1461546698968842e-02 9.0626736439711492e-03 0.0000000000000000e+00  -1.9724664338846128e-02 1.5014352712024481e-02 0.0000000000000000e+00  -1.3197965739068705e-02 9.7370206364684256e-03 0.0000000000000000e+00  -2.1195247114258593e-02 1.5049481999303791e-02 0.0000000000000000e+00  -1.4314817566181330e-02 9.9134727223756536e-03 0.0000000000000000e+00  -1.6600926825835655e-02 1.1065671299443913e-02 0.0000000000000000e+00  -1.8275992847887543e-02 1.1676667745169473e-02 0.0000000000000000e+00  -1.5839447082804655e-02 9.7660420084354337e-03 0.0000000000000000e+00  -2.1946445513837523e-02 1.3032527554688395e-02 0.0000000000000000e+00  -1.5914153444567914e-02 9.1695957604275187e-03 0.0000000000000000e+00  -1.7313182305839815e-02 9.6040382855011007e-03 0.0000000000000000e+00  -1.8322142418596622e-02 9.8089694466174035e-03 0.0000000000000000e+00  -2.0064718663995635e-02 1.0342823674032485e-02 0.0000000000000000e+00  -1.9290429091634236e-02 9.5829873819551631e-03 0.0000000000000000e+00  -1.7272370386370500e-02 8.2991738906785049e-03 0.0000000000000000e+00  -2.4371015398096461e-02 1.1313233432514752e-02 0.0000000000000000e+00  -1.7113624813287386e-02 7.6804495649696117e-03 0.0000000000000000e+00  -1.7515616207566573e-02 7.5394388513317957e-03 0.0000000000000000e+00  -2.5608795861533661e-02 1.0598866900758518e-02 0.0000000000000000e+00  -1.7018789100635454e-02 6.7562207493376226e-03 0.0000000000000000e+00  -2.7105027072649956e-02 1.0272880899349452e-02 0.0000000000000000e+00  -1.8060529867113172e-02 6.6039379261950797e-03 0.0000000000000000e+00  -2.1060805322440593e-02 7.3728353517806379e-03 0.0000000000000000e+00  -2.2695410805574745e-02 7.5533281767793791e-03 0.0000000000000000e+00  -2.0647911288506165e-02 6.5665276636711909e-03 0.0000000000000000e+00  -2.1000643116117313e-02 6.3738198506721805e-03 0.0000000000000000e+00  -2.3274746213277631e-02 6.7145394556569482e-03 0.0000000000000000e+00  -2.1750340277426550e-02 5.9888106576256950e-03 0.0000000000000000e+00  -2.2345812527789746e-02 5.8799378907566742e-03 0.0000000000000000e+00  -2.3797901954212337e-02 5.9271207494875112e-03 0.0000000000000000e+00  -2.2757160791857262e-02 5.3753915004801844e-03 0.0000000000000000e+00  -2.2683434338074734e-02 5.0468485992047705e-03 0.0000000000000000e+00  -2.3864786085245421e-02 4.9587203385435047e-03 0.0000000000000000e+00  -2.0534464381640385e-02 3.9993866262650578e-03 0.0000000000000000e+00  -2.9387400767596224e-02 5.3591376365424142e-03 0.0000000000000000e+00  -2.0295433814581501e-02 3.4697454780229127e-03 0.0000000000000000e+00  -2.4186698830365675e-02 3.8082604205425486e-03 0.0000000000000000e+00  -2.3394871294813400e-02 3.3625526600717060e-03 0.0000000000000000e+00  -2.1104607824388243e-02 2.7768661495351961e-03 0.0000000000000000e+00  -2.9957038834971181e-02 3.6052119806646355e-03 0.0000000000000000e+00  -2.1660060203149041e-02 2.3004207869582356e-03 0.0000000000000000e+00  -2.1643678254486487e-02 2.0090658095103988e-03 0.0000000000000000e+00  -3.0324843584592233e-02 2.4438457121842543e-03 0.0000000000000000e+00  -2.1809016867134833e-02 1.4675930951690344e-03 0.0000000000000000e+00  -2.3145369763338995e-02 1.2742559479043548e-03 0.0000000000000000e+00  -2.3849049829063856e-02 1.0113010821173863e-03 0.0000000000000000e+00  -2.4498141733140209e-02 7.1323807761986024e-04 0.0000000000000000e+00  -2.4001420541639267e-02 3.9436091757558779e-04 0.0000000000000000e+00  -2.4082988950650839e-02 8.3920714984493211e-05 0.0000000000000000e+00  -2.4961227080373787e-02 -2.2203757133881620e-04 0.0000000000000000e+00  -2.2114831296097572e-02 -4.7263272351109615e-04 0.0000000000000000e+00  -3.1014218031695559e-02 -1.0304414632705372e-03 0.0000000000000000e+00  -2.2228731247190912e-02 -9.9398711922890539e-04 0.0000000000000000e+00  -2.2780814902159063e-02 -1.2921283384397604e-03 0.0000000000000000e+00  -3.1676918533266922e-02 -2.1351224581384813e-03 0.0000000000000000e+00  -2.0124279268101064e-02 -1.5947065405345646e-03 0.0000000000000000e+00  -3.1544799267046925e-02 -2.8374411392514689e-03 0.0000000000000000e+00  -2.2564078796116018e-02 -2.3047019336904380e-03 0.0000000000000000e+00  -2.3657934503943615e-02 -2.7002824142921054e-03 0.0000000000000000e+00  -2.3852311164881800e-02 -2.9850281559021504e-03 0.0000000000000000e+00  -2.4787213926190547e-02 -3.4230360114073676e-03 0.0000000000000000e+00  -2.3211016033342857e-02 -3.5198750397758358e-03 0.0000000000000000e+00  -2.2271681716545172e-02 -3.7092312736864987e-03 0.0000000000000000e+00  -3.1389092881201903e-02 -5.5977629812161856e-03 0.0000000000000000e+00  -2.3429240036958159e-02 -4.5541404724223468e-03 0.0000000000000000e+00  -2.3049651186162191e-02 -4.8594385031314980e-03 0.0000000000000000e+00  -2.3068782249220012e-02 -5.1653980856412795e-03 0.0000000000000000e+00  -2.3435538335177489e-02 -5.5645681135848193e-03 0.0000000000000000e+00  -2.3098430469935927e-02 -5.8763596827920133e-03 0.0000000000000000e+00  -2.3203003651309142e-02 -6.2310193396492072e-03 0.0000000000000000e+00  -2.3778935558220065e-02 -6.6959192533650944e-03 0.0000000000000000e+00  -2.1241012789858640e-02 -6.3304405200500314e-03 0.0000000000000000e+00  -2.9296789785635866e-02 -9.1904660719933067e-03 0.0000000000000000e+00  -1.9518551680702191e-02 -6.4115524465139639e-03 0.0000000000000000e+00  -2.0991266808882993e-02 -7.2422241142264324e-03 0.0000000000000000e+00  -2.9193783096161122e-02 -1.0393794033146825e-02 0.0000000000000000e+00  -2.0442580322412151e-02 -7.6514079263283350e-03 0.0000000000000000e+00  -2.8832154055110255e-02 -1.1167421009777762e-02 0.0000000000000000e+00  -2.0395787920261612e-02 -8.2497944002802182e-03 0.0000000000000000e+00  -1.8820657335053673e-02 -7.9806410209122183e-03 0.0000000000000000e+00  -2.0300153611717161e-02 -8.9059936548653070e-03 0.0000000000000000e+00  -2.2005266548076666e-02 -9.9984881354251570e-03 0.0000000000000000e+00  -2.1320090114967535e-02 -1.0062150718094666e-02 0.0000000000000000e+00  -1.8498327068878488e-02 -9.1079424357890428e-03 0.0000000000000000e+00  -2.5345024008691444e-02 -1.2926496351804050e-02 0.0000000000000000e+00  -1.8487633230385207e-02 -9.8087778595710544e-03 0.0000000000000000e+00  -1.8811363531260190e-02 -1.0411534440385088e-02 0.0000000000000000e+00  -1.9039364283399526e-02 -1.0880622263374731e-02 0.0000000000000000e+00  -1.7967856279369018e-02 -1.0691736226968361e-02 0.0000000000000000e+00  -1.8222078809942279e-02 -1.1302088926239739e-02 0.0000000000000000e+00  -1.9438238227387640e-02 -1.2470305322204353e-02 0.0000000000000000e+00  -1.8828509671269388e-02 -1.2617017758655277e-02 0.0000000000000000e+00  -1.8005414378889039e-02 -1.2572035199552793e-02 0.0000000000000000e+00  -1.7263885402035755e-02 -1.2562176557300776e-02 0.0000000000000000e+00  -1.7954973248091699e-02 -1.3552039354569815e-02 0.0000000000000000e+00  -1.6232825775218944e-02 -1.2804945580102513e-02 0.0000000000000000e+00  -1.5488063674340070e-02 -1.2751358059584788e-02 0.0000000000000000e+00  -1.7302549090079368e-02 -1.4800213699813070e-02 0.0000000000000000e+00  -1.5244717905581674e-02 -1.3641211084265364e-02 0.0000000000000000e+00  -1.4902747248209976e-02 -1.3828476792896748e-02 0.0000000000000000e+00  -1.5528613119523693e-02 -1.4991544875172983e-02 0.0000000000000000e+00  -1.4094274727340105e-02 -1.4166284118376445e-02 0.0000000000000000e+00  -1.3395666141341840e-02 -1.4075021710862638e-02 0.0000000000000000e+00  -1.7992229217393151e-02 -1.9625423491704409e-02 0.0000000000000000e+00  -1.1976296737486044e-02 -1.3640873964590870e-02 0.0000000000000000e+00  -1.2312513166037100e-02 -1.4756679216399450e-02 0.0000000000000000e+00  -1.2850507712121416e-02 -1.6078990567554415e-02 0.0000000000000000e+00  -1.1458901129674105e-02 -1.5089774608213842e-02 0.0000000000000000e+00  -1.0793491846253006e-02 -1.4942932868264034e-02 0.0000000000000000e+00  -1.1811190116184743e-02 -1.7195462090051489e-02 0.0000000000000000e+00  -1.0202423005944348e-02 -1.5768347079218349e-02 0.0000000000000000e+00  -9.7967604135037051e-03 -1.5926593593726671e-02 0.0000000000000000e+00  -9.9466458742434958e-03 -1.7142993507532917e-02 0.0000000000000000e+00  -8.8212432539591483e-03 -1.6116077016005356e-02 0.0000000000000000e+00  -8.0395680319056018e-03 -1.5638449665966024e-02 0.0000000000000000e+00  -1.0532990587466821e-02 -2.1720340397291836e-02 0.0000000000000000e+00  -6.7677732658719047e-03 -1.4874324527044099e-02 0.0000000000000000e+00  -6.8398998215989520e-03 -1.6297877958055717e-02 0.0000000000000000e+00  -6.8993437578232404e-03 -1.7704702792720947e-02 0.0000000000000000e+00  -5.8722555773485161e-03 -1.6470351210877449e-02 0.0000000000000000e+00  -5.2736564764389263e-03 -1.6172029881800429e-02 0.0000000000000000e+00  -5.4793994441120417e-03 -1.8517680126049249e-02 0.0000000000000000e+00  -4.4322835890039120e-03 -1.6817547167766841e-02 0.0000000000000000e+00  -4.0194459073971660e-03 -1.6960820247656813e-02 0.0000000000000000e+00  -3.7445444136143861e-03 -1.8155448114777227e-02 0.0000000000000000e+00  -3.0042471504748243e-03 -1.6873321605003044e-02 0.0000000000000000e+00  -2.4457006604176020e-03 -1.6575081096828270e-02 0.0000000000000000e+00  -2.7496249936171777e-03 -2.2936766101162409e-02 0.0000000000000000e+00  -1.4814409367713060e-03 -1.5847666781102731e-02 0.0000000000000000e+00  -1.0277015055751766e-03 -1.6892612399343230e-02 0.0000000000000000e+00  -6.0665717420784154e-04 -1.8253254221797830e-02 0.0000000000000000e+00  -4.7346062557153763e-05 -1.7074816803054588e-02 0.0000000000000000e+00  4.3517964488586108e-04 -1.6601331046502098e-02 0.0000000000000000e+00  1.0696894536800427e-03 -1.9030808040350383e-02 0.0000000000000000e+00  1.4944713241742363e-03 -1.7148056697895094e-02 0.0000000000000000e+00  1.9590382137477484e-03 -1.7215654677552900e-02 0.0000000000000000e+00  2.6696320916813113e-03 -1.8352841390318793e-02 0.0000000000000000e+00  2.9514520637519063e-03 -1.6997084692036601e-02 0.0000000000000000e+00  3.3042825617289407e-03 -1.6176201535212469e-02 0.0000000000000000e+00  5.2992724593608131e-03 -2.2606485423176146e-02 0.0000000000000000e+00  4.0395254378322275e-03 -1.5493821722595833e-02 0.0000000000000000e+00  4.8898563433653879e-03 -1.6655529629000739e-02 0.0000000000000000e+00  5.8003045752455674e-03 -1.7944097214922048e-02 0.0000000000000000e+00  5.9031952525211680e-03 -1.6622970196799751e-02 0.0000000000000000e+00  6.2372502451357109e-03 -1.6165704679303197e-02 0.0000000000000000e+00  7.7544525453330498e-03 -1.8510335996567727e-02 0.0000000000000000e+00  6.8401800291933565e-03 -1.5098026183455732e-02 0.0000000000000000e+00  1.0095600068528833e-02 -2.0934378931845618e-02 0.0000000000000000e+00  7.7342617952687121e-03 -1.5007969437289480e-02 0.0000000000000000e+00  8.7827648044221246e-03 -1.6042721086026834e-02 0.0000000000000000e+00  9.3719703431897824e-03 -1.6091204543203067e-02 0.0000000000000000e+00  1.0495058529326730e-02 -1.6955839110981124e-02 0.0000000000000000e+00  9.6249131986570965e-03 -1.4754189313026083e-02 0.0000000000000000e+00  1.3651244580990426e-02 -1.9867279086948481e-02 0.0000000000000000e+00  1.0441833174266084e-02 -1.4519744278098018e-02 0.0000000000000000e+00  1.1214369283576744e-02 -1.4834849688979013e-02 0.0000000000000000e+00  1.1809228288371035e-02 -1.4984892982367238e-02 0.0000000000000000e+00  1.2656606421611073e-02 -1.5254730392143883e-02 0.0000000000000000e+00  1.2750197759201439e-02 -1.4719284236847985e-02 0.0000000000000000e+00  1.2700002459433224e-02 -1.4117921381635418e-02 0.0000000000000000e+00  1.3772839262135904e-02 -1.4465774327862446e-02 0.0000000000000000e+00  1.3967047140752325e-02 -1.4179522904883795e-02 0.0000000000000000e+00  1.4541951795996339e-02 -1.4171392683912017e-02 0.0000000000000000e+00  1.5498071983520189e-02 -1.4389037387196974e-02 0.0000000000000000e+00  1.4252052095320999e-02 -1.2728676074299190e-02 0.0000000000000000e+00  1.9972437134369504e-02 -1.7124344301849802e-02 0.0000000000000000e+00  1.5085025029596679e-02 -1.2438236857142923e-02 0.0000000000000000e+00  1.5956109725430725e-02 -1.2650467026504053e-02 0.0000000000000000e+00  1.6295550697686182e-02 -1.2465254098789885e-02 0.0000000000000000e+00  1.7277444532339419e-02 -1.2597159254744845e-02 0.0000000000000000e+00  1.7113379186826760e-02 -1.2048273469271956e-02 0.0000000000000000e+00  1.6973593758255957e-02 -1.1563270783026946e-02 0.0000000000000000e+00  1.8260517091882457e-02 -1.1878410893065152e-02 0.0000000000000000e+00  1.8824152593787988e-02 -1.1892558306842197e-02 0.0000000000000000e+00  1.8527890225038767e-02 -1.1224262257737216e-02 0.0000000000000000e+00  2.0198346347710974e-02 -1.1728205507582228e-02 0.0000000000000000e+00  1.8563523804017372e-02 -1.0412491169432700e-02 0.0000000000000000e+00  2.5119076244719811e-02 -1.3622549577026312e-02 0.0000000000000000e+00  1.8937194097277746e-02 -9.9363105014313950e-03 0.0000000000000000e+00  1.9857149484257420e-02 -1.0015253803100786e-02 0.0000000000000000e+00  2.0364974192444509e-02 -9.9037455799897527e-03 0.0000000000000000e+00  2.1972278301533119e-02 -1.0244131652234610e-02 0.0000000000000000e+00  2.1353423610477634e-02 -9.6393374499106500e-03 0.0000000000000000e+00  1.9049850844771312e-02 -8.2969611028910605e-03 0.0000000000000000e+00  2.8254899646012820e-02 -1.1727389770322132e-02 0.0000000000000000e+00  1.9112961113233441e-02 -7.6707259017838158e-03 0.0000000000000000e+00  2.1686213093637101e-02 -8.2945843714774467e-03 0.0000000000000000e+00  2.3015370329021696e-02 -8.3743005666435163e-03 0.0000000000000000e+00  2.1049718848373193e-02 -7.3210351279806357e-03 0.0000000000000000e+00  2.8686053009312800e-02 -9.5199647838064422e-03 0.0000000000000000e+00  2.1447558929277272e-02 -6.7698274354608184e-03 0.0000000000000000e+00  2.1654722072271489e-02 -6.4504396358439535e-03 0.0000000000000000e+00  2.2632320911959474e-02 -6.3770247909585524e-03 0.0000000000000000e+00  2.4802786676536140e-02 -6.5770819445803638e-03 0.0000000000000000e+00  2.3119939317391380e-02 -5.8295530462012550e-03 0.0000000000000000e+00  2.3892148628089790e-02 -5.7211804009374674e-03 0.0000000000000000e+00  2.5038905891509630e-02 -5.6186226212286078e-03 0.0000000000000000e+00  2.3916193535199495e-02 -5.0536332478438367e-03 0.0000000000000000e+00  2.1669758937509137e-02 -4.2595892508333448e-03 0.0000000000000000e+00  3.1816467180109713e-02 -5.7705396696925053e-03 0.0000000000000000e+00  2.0754013501893875e-02 -3.4893368177242260e-03 0.0000000000000000e+00  3.1144067443226193e-02 -4.7984169521825167e-03 0.0000000000000000e+00  2.2453874271259822e-02 -3.1621477216025244e-03 0.0000000000000000e+00  2.1951186625262058e-02 -2.7981568839264902e-03 0.0000000000000000e+00  3.0923991626078173e-02 -3.5888567095234318e-03 0.0000000000000000e+00  2.2348742499435779e-02 -2.3322579811884069e-03 0.0000000000000000e+00  2.3723468926919601e-02 -2.1901194935606268e-03 0.0000000000000000e+00  2.4525539590099031e-02 -1.9481101396241149e-03 0.0000000000000000e+00  2.5183090063335242e-02 -1.6415543380848240e-03 0.0000000000000000e+00  2.4722347542419278e-02 -1.2953243720617007e-03 0.0000000000000000e+00  2.4625218570973845e-02 -9.6390342528313900e-04 0.0000000000000000e+00  2.5377575566861540e-02 -6.5069224786394088e-04 0.0000000000000000e+00  2.2108935296981831e-02 -2.9103813947227203e-04 0.0000000000000000e+00  3.1489541167366714e-02 -2.5439602698791794e-06 0.0000000000000000e+00  1.8879618762037399e-02 2.2023093474241536e-04 0.0000000000000000e+00  3.1578744065213250e-02 8.1599037488363515e-04 0.0000000000000000e+00  2.1410952138362156e-02 8.0755529532968503e-04 0.0000000000000000e+00  2.4977566136185528e-02 1.2820128872423682e-03 0.0000000000000000e+00  2.4649562048179641e-02 1.5927654618407320e-03 0.0000000000000000e+00  2.2952252061802708e-02 1.7588462157700987e-03 0.0000000000000000e+00  2.5263112882771031e-02 2.2322698401504157e-03 0.0000000000000000e+00  2.2844469538104935e-02 2.2898516028647944e-03 0.0000000000000000e+00  2.1292027241512298e-02 2.3640986796863860e-03 0.0000000000000000e+00  3.0778925147659522e-02 3.7118308744001258e-03 0.0000000000000000e+00  2.2909405053515443e-02 3.0438356771046908e-03 0.0000000000000000e+00  2.2599961010629544e-02 3.2809361536320757e-03 0.0000000000000000e+00  2.3367319577843524e-02 3.6641132914461876e-03 0.0000000000000000e+00  2.4462435006824615e-02 4.1243353539278564e-03 0.0000000000000000e+00  2.2285088638967079e-02 4.0307980838887878e-03 0.0000000000000000e+00  2.2121376211057323e-02 4.2738794938224894e-03 0.0000000000000000e+00  2.2063079914790153e-02 4.5227480430543336e-03 0.0000000000000000e+00  2.2472097884906311e-02 4.8861899290116220e-03 0.0000000000000000e+00  2.3341716819460078e-02 5.3311029662336711e-03 0.0000000000000000e+00  2.3511337643097423e-02 5.6871508264193914e-03 0.0000000000000000e+00  2.0297443496756048e-02 5.2047687767748808e-03 0.0000000000000000e+00  2.851227102038578