<?xml version="1.0"?>
<VTKFile type="UnstructuredGrid"  version="0.1"  >
<UnstructuredGrid>
<Piece  NumberOfPoints="4265" NumberOfCells="6746">
<Points>
<DataArray  type="Float64"  NumberOfComponents="3"  format="ascii">0 0.01 0  10 0.01 0  0 1.030624186909793 0  10 1.030624186909793 0  0.007129524987038337 0.009997491741717768 0  0.01258064459049757 0.00999219056738478 0  0.01872173241756402 0.009982708334120727 0  0.02429919625640796 0.009970876572043954 0  0.03017238705920286 0.009955108531615313 0  0.03612352734296466 0.0099356743715591 0  0.04164979236492252 0.009914517792428084 0  0.04780928449023854 0.009887415768096998 0  0.05327287671237849 0.009860276931383746 0  0.0593436395885565 0.009826715421083503 0  0.06505608699933001 0.009791870631895848 0  0.07077243060783153 0.009753845329312128 0  0.07684085351634186 0.009710036052663748 0  0.08230528612367993 0.009667566921662384 0  0.08846525752759338 0.009616276826848907 0  0.09398926586603956 0.0095672187064786 0  0.09994377871281757 0.009511110804477986 0  0.10581288515308 0.009452550633355501 0  0.1113930001121819 0.009393893683773193 0  0.1175326299024069 0.009326020378011352 0  0.122983161250664 0.009262856809916281 0  0.1290978349347763 0.009188765415777931 0  0.1347300222736412 0.00911751981665075 0  0.1405327472005438 0.009041131768776852 0  0.1465421455697866 0.008958856277281909 0  0.1520341809431761 0.008880870879718691 0  0.1581991754706344 0.00879018143976357 0  0.1636834803794234 0.008706732874359017 0  0.1697073563005918 0.008612096527554045 0  0.1754901396361989 0.008518345936558386 0  0.1811391035120075 0.008424050210098115 0  0.1872444279222087 0.00831915423323064 0  0.1926961446341008 0.008222899998379215 0  0.198841090009393 0.008111516418624823 0  0.2044064770158165 0.008008028244452866 0  0.2102948627703611 0.007895869216798803 0  0.2162299794791283 0.007780085801116003 0  0.2217647046821167 0.007669675498109103 0  0.2279204403470532 0.007544154739747676 0  0.2333791472114919 0.007430485124751003 0  0.2394590817234977 0.0073013084386626 0  0.245152498789355 0.007177928079207972 0  0.2508861115607116 0.007051356111670669 0  0.2569419868439766 0.006915186417023598 0  0.2624099649457279 0.006790084113692359 0  0.2685711825796066 0.006646722567663751 0  0.274083748205357 0.006516341894728842 0  0.2800541704182985 0.00637292855786236 0  0.2859022845836161 0.006230279166502627 0  0.291495955429921 0.006091868246150131 0  0.2976275706217687 0.005937986548763313 0  0.3030757324287757 0.005799406374294222 0  0.3091980118239236 0.005641654227187252 0  0.3148109405089491 0.005495191514879527 0  0.3206341933715942 0.005341435282378838 0  0.3266248575896781 0.005181393525330103 0  0.3321252080346692 0.005032833254881577 0  0.3382880718234609 0.004864596209960478 0  0.3437628463580178 0.004713611578807419 0  0.3498021006600692 0.004545443593512952 0  0.3555594631656461 0.004383601001460968 0  0.3612291099056053 0.004222822711549606 0  0.3673210805066339 0.004048576418709386 0  0.3727746135437823 0.003891330909934085 0  0.3789246700786391 0.003712634483246944 0  0.3844721023230384 0.00355025746928806 0  0.3903845048135511 0.003376011435332509 0  0.3962935688476314 0.003200699755406988 0  0.4018430601204535 0.00303505085978487 0  0.4079921977692303 0.002850427660455144 0  0.4134449905916002 0.002685819499171436 0  0.4195385366679084 0.002500937932218923 0  0.425204482428441 0.002328206591247292 0  0.4309651825948974 0.00215183074136113 0  0.4370014133195289 0.001966263547608745 0  0.4424769325836848 0.00179732019881714 0  0.4486395183564056 0.001606544730410899 0  0.4541373275735043 0.001435838569361521 0  0.4601308451156257 0.001249254088784412 0  0.4659488863550298 0.001067707976620331 0  0.471564807260988 0.0008921302908496037 0  0.4776843759254726 0.0007004920228137959 0  0.4831317484445766 0.0005296836585198918 0  0.4892643513384632 0.0003372062279158936 0  0.4948528283485032 0.000161696161435303 0  0.5007056813361916 -2.216943068070812e-05 0  0.5066699093509902 -0.000209526046556915 0  0.5121845298566023 -0.0003826949545447442 0  0.5183439831944545 -0.0005759742926309219 0  0.5238088617282698 -0.0007472800272428554 0  0.5298681543527348 -0.0009369594486414562 0  0.5355929349139432 -0.001115856450691032 0  0.5412927239341832 -0.001293613669039852 0  0.5473668732672543 -0.001482588207084091 0  0.5528259073001393 -0.001651967505962102 0  0.5589819336317072 -0.001842386787779294 0  0.5645100189486582 -0.002012797049529044 0  0.5704524332663232 -0.002195301346534757 0  0.5763298911552834 -0.002375058665203144 0  0.5819006708717119 -0.002544689651648297 0  0.5880413281562127 -0.002730768313747055 0  0.5934904284812221 -0.002895042191696308 0  0.5995995320960693 -0.003078202338538874 0  0.605236779888003 -0.003246210954182579 0  0.6110299855290301 -0.003417806240976177 0  0.6170432999212266 -0.00359472323302265 0  0.6225307972792151 -0.00375505261922207 0  0.6286944373476531 -0.003933803567825084 0  0.6341794289295242 -0.004091634709336539 0  0.6401977648984302 -0.004263413669385436 0  0.6459846030577213 -0.004427148756161272 0  0.6516277670629291 -0.004585409549508515 0  0.6577342305863492 -0.004755038487876419 0  0.6631843111407589 -0.004904958327357115 0  0.6693271588517591 -0.005072208653571043 0  0.6748942591145469 -0.005222152905474348 0  0.6807781354428797 -0.005378892074409919 0  0.6867158102497221 -0.005535201343768038 0  0.6922478556369909 -0.005679100421160843 0  0.6984036264198542 -0.005837205328254034 0  0.7038624132928571 -0.005975584427524931 0  0.7099402809449575 -0.006127588021236129 0  0.7156361945945205 -0.006268012368771779 0  0.7213667017809595 -0.006407263887957157 0  0.7274241898103784 -0.006552202568912044 0  0.7328913375361901 -0.006680980644346233 0  0.7390522654079078 -0.006823736587757829 0  0.7445663161830813 -0.006949337256267011 0  0.7505345306161221 -0.007082931996795786 0  0.7563856967966242 -0.007211490056377221 0  0.7619775509571868 -0.007332073958440476 0  0.7681106054434813 -0.007461725199742056 0  0.7735594228940573 -0.007574589702563127 0  0.7796809699364847 -0.007698739982391196 0  0.7852974086111042 -0.007810142587226769 0  0.7911178568436495 -0.007923025648348906 0  0.797112403703894 -0.008036515862006795 0  0.8026119630288198 -0.008138129173272899 0  0.8087760180262171 -0.008249131188213875 0  0.814253500572072 -0.008345174877796967 0  0.8202905515677629 -0.008448166667805387 0  0.8260544286221699 -0.008543663134562481 0  0.831720415905675 -0.008634807324656511 0  0.8378167080097026 -0.008729817306667463 0  0.8432709709919499 -0.008812108559864256 0  0.8494209576248264 -0.008901791974276371 0  0.8549745826348545 -0.008979924427376591 0  0.8608814329347291 -0.009060026011188804 0  0.8667998142885592 -0.009137155111096256 0  0.8723460990452367 -0.009206568509458774 0  0.8784989383774584 -0.009280301817794542 0  0.8839552890388401 -0.009342788637451834 0  0.8900456692707091 -0.009409293585850673 0  0.8957233874467343 -0.009468190513990782 0  0.9014754209053449 -0.009524786393944277 0  0.9075213579987256 -0.009580921173179099 0  0.9129954731058688 -0.009628765913494807 0  0.9191593188847452 -0.009679229788646495 0  0.9246655330424429 -0.009721240864333262 0  0.9306503084472221 -0.009763603884533442 0  0.9364847200361547 -0.009801580348484516 0  0.9420914259676206 -0.009834972127394636 0  0.948219177636862 -0.009867976960504428 0  0.9536688877131657 -0.009894257783109666 0  0.9597979104438458 -0.009920349306153329 0  0.9654020314719589 -0.009940987600901847 0  0.9712398170272581 -0.009959209624459757 0  0.9772219132298864 -0.009974407121723252 0  0.9827297975109929 -0.009985285083248089 0  0.9888934840407251 -0.009993913310034224 0  0.9943667421923366 -0.009998434045983932 0  1.000414962337846 -0.009999991502249178 0  1.00616395254491 -0.009998125110441144 0  1.011844857354635 -0.009993077234903055 0  1.017933801412069 -0.009984132829796667 0  1.023390946643176 -0.00997301205183276 0  1.029544679732296 -0.009956955598792184 0  1.035089558108845 -0.009939300412459717 0  1.041010936359372 -0.009917116481575694 0  1.04691554237944 -0.00989157814857561 0  1.052471258615448 -0.009864440751261633 0  1.05862104751389 -0.009830897850136421 0  1.064075481579663 -0.009798076706746352 0  1.070173358231585 -0.009757978136698224 0  1.075837941143087 -0.00971752009646258 0  1.081604377355612 -0.009673173917302162 0  1.087640686528322 -0.009623351755525641 0  1.093119387704205 -0.009575135453199036 0  1.099284093826516 -0.009517491101966447 0  1.104783734376909 -0.009463052176492596 0  1.110779897618174 -0.009400480030121557 0  1.116599992234411 -0.00933655469875222 0  1.122217899723542 -0.009271889359757672 0  1.128339818747432 -0.009198135031144493 0  1.133789446190431 -0.00912961705214143 0  1.139923317158062 -0.009049295973540348 0  1.145515844317945 -0.008973134373133167 0  1.151367773813766 -0.008890475161473248 0  1.157336906671575 -0.008803064948780913 0  1.16285160438384 -0.008719557366803981 0  1.16901331600552 -0.008623157866544266 0  1.174481522907442 -0.00853490108265173 0  1.180539122189597 -0.008434191931863186 0  1.186271617394136 -0.008336073959344166 0  1.191966996821913 -0.008235914041393521 0  1.198046448076202 -0.008126091334838595 0  1.203505695906331 -0.008024945109277802 0  1.209661806077474 -0.007908057515838151 0  1.21519584913737 -0.007800455577732041 0  1.221132109188887 -0.00768241304184519 0  1.227019087412133 -0.007562711583992629 0  1.232585135446325 -0.007447155722966398 0  1.238729389023077 -0.007316953404904543 0  1.244180486899644 -0.007199156086382225 0  1.250286093435722 -0.007064709646262071 0  1.255932842016573 -0.006938052500145445 0  1.261716857103797 -0.006806053534187844 0  1.26773845151126 -0.006666245775332091 0  1.273222687278595 -0.006536836953056475 0  1.279386853652711 -0.00638906998029936 0  1.284876650734994 -0.006255450389977176 0  1.290887326898431 -0.00610702037198264 0  1.296685536664392 -0.00596177282270944 0  1.30231949087952 -0.005818744638503708 0  1.308431215520824
[...]
<PointData  Vectors="Traction"> 
<DataArray  type="Float64"  Name="Traction"  NumberOfComponents="3" format="ascii">2.8539381759570674e-05 9.0476217627690134e-03 0.0000000000000000e+00  2.8539381759570674e-05 9.0476217627690134e-03 0.0000000000000000e+00  1.7303732697708457e-09 -7.4393162762180987e-09 0.0000000000000000e+00  1.7303732697708457e-09 -7.4393162762180987e-09 0.0000000000000000e+00  -5.3673404830977835e-04 1.5195072548031614e-02 0.0000000000000000e+00  -8.2252962096724866e-04 1.3800447882966619e-02 0.0000000000000000e+00  -1.1268952605275437e-03 1.2785882093342740e-02 0.0000000000000000e+00  -1.6005447359589856e-03 1.4124770436563237e-02 0.0000000000000000e+00  -1.7178648438921475e-03 1.2147607064674186e-02 0.0000000000000000e+00  -2.7889970025126139e-03 1.6547410677379235e-02 0.0000000000000000e+00  -2.0939001840542888e-03 1.0837890880478089e-02 0.0000000000000000e+00  -2.8527774708497398e-03 1.2745293954040822e-02 0.0000000000000000e+00  -3.4107742585811744e-03 1.3527039767493152e-02 0.0000000000000000e+00  -3.1932533555670264e-03 1.1277675691775254e-02 0.0000000000000000e+00  -5.0093225254740689e-03 1.6183445593495226e-02 0.0000000000000000e+00  -3.5426242849263558e-03 1.0568305486584174e-02 0.0000000000000000e+00  -6.1184202626554628e-03 1.6525906252605763e-02 0.0000000000000000e+00  -4.2625660210540428e-03 1.0808715968426568e-02 0.0000000000000000e+00  -5.3026993073753744e-03 1.2432414179241329e-02 0.0000000000000000e+00  -6.2799231158997791e-03 1.3642227581534090e-02 0.0000000000000000e+00  -5.9710253217790735e-03 1.2152594279664962e-02 0.0000000000000000e+00  -6.3051794123335520e-03 1.2035242593450478e-02 0.0000000000000000e+00  -7.4506952889136719e-03 1.3373761418407714e-02 0.0000000000000000e+00  -7.1205864293670366e-03 1.2066402778806872e-02 0.0000000000000000e+00  -7.4609534476097793e-03 1.2074447913167540e-02 0.0000000000000000e+00  -8.1681963482133583e-03 1.2467630688433677e-02 0.0000000000000000e+00  -8.1001979604353458e-03 1.1831942534284550e-02 0.0000000000000000e+00  -7.8559693378949785e-03 1.0986481661804257e-02 0.0000000000000000e+00  -1.1504814577546388e-02 1.5294219233071739e-02 0.0000000000000000e+00  -8.8943230419437237e-03 1.1427388153792406e-02 0.0000000000000000e+00  -8.9019351925687037e-03 1.0888943788317671e-02 0.0000000000000000e+00  -9.2327413169198298e-03 1.0800691850572397e-02 0.0000000000000000e+00  -1.0380776219286585e-02 1.1598903683505520e-02 0.0000000000000000e+00  -1.5074387304180569e-02 1.6195523878439543e-02 0.0000000000000000e+00  -6.3915283083393441e-03 6.6221194644262363e-03 0.0000000000000000e+00  -1.4089529171176863e-02 1.3916926471729301e-02 0.0000000000000000e+00  -1.3699989819810214e-02 1.3070607633101998e-02 0.0000000000000000e+00  -9.0543564644618661e-03 8.3943824206443342e-03 0.0000000000000000e+00  -1.5635717235103559e-02 1.3893587334696301e-02 0.0000000000000000e+00  -1.0256715795211967e-02 8.9082227961765851e-03 0.0000000000000000e+00  -1.1030271072731699e-02 9.2947947412490815e-03 0.0000000000000000e+00  -1.2574461701885026e-02 1.0081391289236134e-02 0.0000000000000000e+00  -1.8274300672862214e-02 1.4028895730634853e-02 0.0000000000000000e+00  -1.3315977928761638e-02 1.0085200567218537e-02 0.0000000000000000e+00  -1.1196427490158574e-02 8.2008412313821864e-03 0.0000000000000000e+00  -1.8654050619927670e-02 1.3102392604135205e-02 0.0000000000000000e+00  -1.1493886560535420e-02 7.8473071399440299e-03 0.0000000000000000e+00  -1.8841915242709891e-02 1.2403643609253464e-02 0.0000000000000000e+00  -1.3404074759958902e-02 8.5364071752927623e-03 0.0000000000000000e+00  -1.5135311636584842e-02 9.2832713707572539e-03 0.0000000000000000e+00  -1.5349581105217801e-02 9.0715269724546879e-03 0.0000000000000000e+00  -1.6945227986903927e-02 9.6375693579228323e-03 0.0000000000000000e+00  -1.6012667270417065e-02 8.8188429812265708e-03 0.0000000000000000e+00  -1.4273040494911304e-02 7.5579603323465919e-03 0.0000000000000000e+00  -2.0731702613482082e-02 1.0543013260123749e-02 0.0000000000000000e+00  -2.1368138669227592e-02 1.0523249208842119e-02 0.0000000000000000e+00  -1.3695550715025153e-02 6.5754501564484090e-03 0.0000000000000000e+00  -2.2727108262137110e-02 1.0486599894250423e-02 0.0000000000000000e+00  -1.2998483467811775e-02 5.8128527347555059e-03 0.0000000000000000e+00  -2.3180242215672303e-02 1.0016586774349681e-02 0.0000000000000000e+00  -1.5773048027010159e-02 6.6086668884916778e-03 0.0000000000000000e+00  -1.8290166089788031e-02 7.3935135931830261e-03 0.0000000000000000e+00  -1.8879041382458009e-02 7.3232337581289556e-03 0.0000000000000000e+00  -1.8320889317370491e-02 6.8154352402141904e-03 0.0000000000000000e+00  -2.4794345128624898e-02 8.7992632066529568e-03 0.0000000000000000e+00  -1.6257312525018011e-02 5.5763101889288987e-03 0.0000000000000000e+00  -2.6876069873182782e-02 8.7452070327853695e-03 0.0000000000000000e+00  -1.2251993818133088e-02 3.8211817396179184e-03 0.0000000000000000e+00  -2.6593014205856070e-02 7.8895951257500728e-03 0.0000000000000000e+00  -2.4421807310449999e-02 6.9572926966729610e-03 0.0000000000000000e+00  -1.9348160362290909e-02 5.3120462715635095e-03 0.0000000000000000e+00  -1.9845004468413616e-02 5.2179875541690079e-03 0.0000000000000000e+00  -1.6261354979558700e-02 4.0848402425611276e-03 0.0000000000000000e+00  -2.5111808005288571e-02 5.9759311022436756e-03 0.0000000000000000e+00  -2.5245868098547921e-02 5.7074294646689101e-03 0.0000000000000000e+00  -1.6714802745781930e-02 3.6139134815247895e-03 0.0000000000000000e+00  -2.8000405280168547e-02 5.6335953807189190e-03 0.0000000000000000e+00  -1.9014945387064691e-02 3.5855127569522313e-03 0.0000000000000000e+00  -1.9185726391377323e-02 3.3751660946700940e-03 0.0000000000000000e+00  -2.7784257497681323e-02 4.5709679655787537e-03 0.0000000000000000e+00  -1.8878682547822649e-02 2.8611162296566309e-03 0.0000000000000000e+00  -2.2940726767715722e-02 3.1722161665834752e-03 0.0000000000000000e+00  -2.1578839090012868e-02 2.7047837171064889e-03 0.0000000000000000e+00  -2.2563819668123847e-02 2.5762666252831063e-03 0.0000000000000000e+00  -2.3011850723648197e-02 2.3627521314778109e-03 0.0000000000000000e+00  -2.9999574346896631e-02 2.7413369705022281e-03 0.0000000000000000e+00  -2.0902680829393918e-02 1.7089251743884920e-03 0.0000000000000000e+00  -2.1905522987080085e-02 1.5194672929207966e-03 0.0000000000000000e+00  -2.3972621096825256e-02 1.3794191916951335e-03 0.0000000000000000e+00  -2.1220236966608186e-02 9.7130609592787384e-04 0.0000000000000000e+00  -2.8961815531798885e-02 1.0196002821561676e-03 0.0000000000000000e+00  -2.1714666979032363e-02 5.2163865165339612e-04 0.0000000000000000e+00  -2.2226709476744402e-02 2.8002184423989298e-04 0.0000000000000000e+00  -2.2240948335038754e-02 3.5131997170532039e-05 0.0000000000000000e+00  -2.2166948163689616e-02 -2.2692328222800710e-04 0.0000000000000000e+00  -2.3123104623521504e-02 -5.0304029100766226e-04 0.0000000000000000e+00  -2.2508941478268183e-02 -7.4208288824206879e-04 0.0000000000000000e+00  -3.0020485806976804e-02 -1.3355078300210871e-03 0.0000000000000000e+00  -2.1502389100679916e-02 -1.1998630119993288e-03 0.0000000000000000e+00  -2.3254183653996181e-02 -1.5828688328903043e-03 0.0000000000000000e+00  -2.3904553118516299e-02 -1.8872191694903958e-03 0.0000000000000000e+00  -2.1101634324584326e-02 -1.9269893233427972e-03 0.0000000000000000e+00  -2.9333678913286584e-02 -3.0324442331326673e-03 0.0000000000000000e+00  -1.9219234243363772e-02 -2.2218383766371783e-03 0.0000000000000000e+00  -2.2238408556237876e-02 -2.8541086776621210e-03 0.0000000000000000e+00  -2.3183485079118132e-02 -3.2185924389396552e-03 0.0000000000000000e+00  -2.3176592208885415e-02 -3.5042164758580887e-03 0.0000000000000000e+00  -2.1981847583312512e-02 -3.5993029476953211e-03 0.0000000000000000e+00  -2.2212606649367039e-02 -3.8837326674605213e-03 0.0000000000000000e+00  -2.2916726264265604e-02 -4.2679183739358171e-03 0.0000000000000000e+00  -2.2354711243812209e-02 -4.4788067758333430e-03 0.0000000000000000e+00  -2.2204308350950937e-02 -4.7355452934809330e-03 0.0000000000000000e+00  -2.2618284010477569e-02 -5.0816464115010195e-03 0.0000000000000000e+00  -2.0274939936997655e-02 -4.8494283011360512e-03 0.0000000000000000e+00  -2.7548879775483405e-02 -6.9088208999207928e-03 0.0000000000000000e+00  -2.0198765014811906e-02 -5.3611463964731128e-03 0.0000000000000000e+00  -2.0935826575292957e-02 -5.8659323367955167e-03 0.0000000000000000e+00  -2.0896137400331995e-02 -6.1382887332360357e-03 0.0000000000000000e+00  -2.1284994277338976e-02 -6.5329353201024117e-03 0.0000000000000000e+00  -2.0679461664809790e-02 -6.6657703017292628e-03 0.0000000000000000e+00  -1.8449896792117403e-02 -6.2442034421038564e-03 0.0000000000000000e+00  -2.6762951534368404e-02 -9.3907502303605082e-03 0.0000000000000000e+00  -1.8078757098898696e-02 -6.6393750569530971e-03 0.0000000000000000e+00  -2.0181021462552920e-02 -7.7647342579350020e-03 0.0000000000000000e+00  -2.0436003854740020e-02 -8.1533272365383914e-03 0.0000000000000000e+00  -2.0008847789375533e-02 -8.3241134519450397e-03 0.0000000000000000e+00  -1.7290957993416671e-02 -7.5170690350587800e-03 0.0000000000000000e+00  -2.3819465328437074e-02 -1.0817570138174012e-02 0.0000000000000000e+00  -1.6613665020075906e-02 -7.7792503135326449e-03 0.0000000000000000e+00  -1.8777929370008002e-02 -9.0627640065964968e-03 0.0000000000000000e+00  -1.9001749027620245e-02 -9.5769514071856257e-03 0.0000000000000000e+00  -1.7964783414916891e-02 -9.4707970712644713e-03 0.0000000000000000e+00  -1.7762814895735366e-02 -9.7491173339509553e-03 0.0000000000000000e+00  -1.7965736139747761e-02 -1.0247532310732502e-02 0.0000000000000000e+00  -1.7312653291040325e-02 -1.0328749263204933e-02 0.0000000000000000e+00  -1.7046662479825371e-02 -1.0631966348577817e-02 0.0000000000000000e+00  -1.6386506678688070e-02 -1.0609286435774468e-02 0.0000000000000000e+00  -1.6230054990194497e-02 -1.0908538981341379e-02 0.0000000000000000e+00  -1.6109626806859342e-02 -1.1199541438736334e-02 0.0000000000000000e+00  -1.4098561013161922e-02 -1.0220548759368437e-02 0.0000000000000000e+00  -1.9139322760002488e-02 -1.4399610986086850e-02 0.0000000000000000e+00  -1.3806938253863914e-02 -1.0789582806822063e-02 0.0000000000000000e+00  -1.3963416566770533e-02 -1.1441296295161725e-02 0.0000000000000000e+00  -1.3730423998602959e-02 -1.1689742196025612e-02 0.0000000000000000e+00  -1.2725095598494447e-02 -1.1260548389294692e-02 0.0000000000000000e+00  -1.7371592216020387e-02 -1.5946277689197728e-02 0.0000000000000000e+00  -1.0587066038105747e-02 -1.0095934848607884e-02 0.0000000000000000e+00  -1.6138174655650338e-02 -1.6010916258100059e-02 0.0000000000000000e+00  -1.0559555283397993e-02 -1.1021058311337694e-02 0.0000000000000000e+00  -1.0739557412282963e-02 -1.1810314440333746e-02 0.0000000000000000e+00  -1.4452174273654736e-02 -1.6589474188575773e-02 0.0000000000000000e+00  -1.0229059157960265e-02 -1.2369581010671779e-02 0.0000000000000000e+00  -1.0209793147398805e-02 -1.3014646869525255e-02 0.0000000000000000e+00  -9.9730785873622437e-03 -1.3288578472482764e-02 0.0000000000000000e+00  -9.7053518840152578e-03 -1.3601134306423474e-02 0.0000000000000000e+00  -9.1017621781459435e-03 -1.3563565518312845e-02 0.0000000000000000e+00  -8.7839151685799935e-03 -1.3861944643002593e-02 0.0000000000000000e+00  -8.6512074935078172e-03 -1.4458864164586449e-02 0.0000000000000000e+00  -7.2028664650366633e-03 -1.2886853711253282e-02 0.0000000000000000e+00  -9.5274368929714644e-03 -1.8203863219062186e-02 0.0000000000000000e+00  -5.9777230229271679e-03 -1.2224493614562385e-02 0.0000000000000000e+00  -6.6210638101435910e-03 -1.4625854105926331e-02 0.0000000000000000e+00  -6.3136072632345294e-03 -1.5016596294235967e-02 0.0000000000000000e+00  -5.1450695119329617e-03 -1.3349900997030770e-02 0.0000000000000000e+00  -6.6620681384560142e-03 -1.8836882276130628e-02 0.0000000000000000e+00  -3.9179864010575986e-03 -1.2134502101028842e-02 0.0000000000000000e+00  -5.5014282849245892e-03 -1.8964800416062789e-02 0.0000000000000000e+00  -3.2699591648462688e-03 -1.2757668925878748e-02 0.0000000000000000e+00  -3.5871642999181740e-03 -1.6084622267147099e-02 0.0000000000000000e+00  -2.7665500427527501e-03 -1.4580710412635561e-02 0.0000000000000000e+00  -2.0366922627737157e-03 -1.2943689369496610e-02 0.0000000000000000e+00  -2.4468350587875591e-03 -1.9501097141388431e-02 0.0000000000000000e+00  -1.2402596652913835e-03 -1.3249981416318741e-02 0.0000000000000000e+00  -8.9114456965672811e-04 -1.4639550674314905e-02 0.0000000000000000e+00  -4.7236992558290946e-04 -1.5343485850260786e-02 0.0000000000000000e+00  1.8218892151971453e-06 -1.5591719694959321e-02 0.0000000000000000e+00  4.7280261534023854e-04 -1.5548080104362413e-02 0.0000000000000000e+00  7.7610613320146151e-04 -1.2676748985072936e-02 0.0000000000000000e+00  1.7579510205881837e-03 -1.9037794118410199e-02 0.0000000000000000e+00  1.5647673547253638e-03 -1.2855856205674358e-02 0.0000000000000000e+00  2.4079634412538038e-03 -1.5210358891084259e-02 0.0000000000000000e+00  2.9073089942591532e-03 -1.5287882269842084e-02 0.0000000000000000e+00  2.9944242966849499e-03 -1.3448842553473943e-02 0.0000000000000000e+00  4.7876202317111505e-03 -1.8792582767083059e-02 0.0000000000000000e+00  3.5732459321153186e-03 -1.2486123107893109e-02 0.0000000000000000e+00  4.7623131260926821e-03 -1.4818965865001907e-02 0.0000000000000000e+00  5.3439521544828353e-03 -1.5047505117116958e-02 0.0000000000000000e+00  5.1487019829488338e-03 -1.3244627223765957e-02 0.0000000000000000e+00  7.8084083959357904e-03 -1.8586744100551344e-02 0.0000000000000000e+00  5.3549163364665676e-03 -1.1854099104989411e-02 0.0000000000000000e+00  9.0057622863911769e-03 -1.8364142167166746e-02 0.0000000000000000e+00  6.4142434770988500e-03 -1.2308430652342620e-02 0.0000000000000000e+00  8.4228122180664694e-03 -1.5082106434294158e-02 0.0000000000000000e+00  8.1373353545453990e-03 -1.3708733485050207e-02 0.0000000000000000e+00  7.5709383406519400e-03 -1.2051922383493355e-02 0.0000000000000000e+00  1.2004356251817418e-02 -1.7971015890471939e-02 0.0000000000000000e+00  8.3239012532335763e-03 -1.1908577981734267e-02 0.0000000000000000e+00  1.0084806014902338e-02 -1.3642577053587039e-02 0.0000000000000000e+00  1.0901138800137117e-02 -1.3936341315518463e-02 0.0000000000000000e+00  1.1375514423502313e-02 -1.3753702675724908e-02 0.0000000000000000e+00  1.1343979103418026e-02 -1.3179250884558463e-02 0.0000000000000000e+00  1.0590268932712416e-02 -1.1741897752501129e-02 0.0000000000000000e+00  1.6096304925389850e-02 -1.6955063903274475e-02 0.0000000000000000e+00  1.1548580963953805e-02 -1.1726669363798807e-02 0.0000000000000000e+00  1.2959679990983242e-02 -1.2530232560599455e-02 0.0000000000000000e+00  1.4089169561771179e-02 -1.2983736043034880e-02 0.0000000000000000e+00  1.2373544485907922e-02 -1.0956837686575212e-02 0.0000000000000000e+00  1.8013675144896813e-02 -1.5279189101238341e-02 0.0000000000000000e+00  1.2401996822066037e-02 -1.0160853086726870e-02 0.0000000000000000e+00  1.9291320258270073e-02 -1.5110825338498089e-02 0.0000000000000000e+00  1.3779161815246953e-02 -1.0434065837846977e-02 0.0000000000000000e+00  1.4702225441392457e-02 -1.0695743691907275e-02 0.0000000000000000e+00  1.5056968185998141e-02 -1.0551909097641411e-02 0.0000000000000000e+00  1.7452909143118867e-02 -1.1709986602209059e-02 0.0000000000000000e+00  1.6363566200600872e-02 -1.0583546659741419e-02 0.0000000000000000e+00  1.6848061599131402e-02 -1.0487534207910675e-02 0.0000000000000000e+00  1.7862124585967365e-02 -1.0646135246122833e-02 0.0000000000000000e+00  1.7302858072615449e-02 -9.9782182771578232e-03 0.0000000000000000e+00  1.7571684763833695e-02 -9.7424939327485499e-03 0.0000000000000000e+00  1.8455150058793286e-02 -9.8013752772075184e-03 0.0000000000000000e+00  1.6757784142803780e-02 -8.5768131038590160e-03 0.0000000000000000e+00  2.3434034280463766e-02 -1.1582365636539306e-02 0.0000000000000000e+00  1.7580034505777380e-02 -8.3915446525033872e-03 0.0000000000000000e+00  1.8725779140140418e-02 -8.5781465463574767e-03 0.0000000000000000e+00  1.9119191535788869e-02 -8.4103205157705831e-03 0.0000000000000000e+00  2.0664231051776002e-02 -8.6938256131665163e-03 0.0000000000000000e+00  2.0214796983032510e-02 -8.2086374619320026e-03 0.0000000000000000e+00  1.7607015901682628e-02 -6.9116216199918805e-03 0.0000000000000000e+00  2.6082250782713753e-02 -9.7286870703211549e-03 0.0000000000000000e+00  1.7617508474461387e-02 -6.4030079897322472e-03 0.0000000000000000e+00  2.0981291680097696e-02 -7.2690925501478435e-03 0.0000000000000000e+00  2.1649010081665157e-02 -7.1275694984285045e-03 0.0000000000000000e+00  1.9881955982079723e-02 -6.2544308901655967e-03 0.0000000000000000e+00  2.6928382074112911e-02 -8.0551893468028563e-03 0.0000000000000000e+00  2.0124919545562666e-02 -5.7560472570407925e-03 0.0000000000000000e+00  2.0302552549603073e-02 -5.4738434691958505e-03 0.0000000000000000e+00  2.1221420427471563e-02 -5.4288631526074908e-03 0.0000000000000000e+00  2.3279642062747338e-02 -5.6218414523908694e-03 0.0000000000000000e+00  2.1708825760172312e-02 -4.9970319586502285e-03 0.0000000000000000e+00  2.2457893969746970e-02 -4.8777138992213915e-03 0.0000000000000000e+00  2.3532737980560166e-02 -4.7732377433642257e-03 0.0000000000000000e+00  2.2483035694755342e-02 -4.2803527290615059e-03 0.0000000000000000e+00  2.0367771045140447e-02 -3.6061089525777691e-03 0.0000000000000000e+00  2.9838857290443343e-02 -4.8599924671740543e-03 0.0000000000000000e+00  1.9541439448705115e-02 -2.9449211628786763e-03 0.0000000000000000e+00  2.9291025749569238e-02 -4.0264001115250820e-03 0.0000000000000000e+00  2.1176488440152311e-02 -2.6360577011231945e-03 0.0000000000000000e+00  2.0735005051446990e-02 -2.3126205880867577e-03 0.0000000000000000e+00  2.9068308931935172e-02 -2.9303111676985114e-03 0.0000000000000000e+00  2.1104680966600172e-02 -1.8826950561392868e-03 0.0000000000000000e+00  2.2161370681589552e-02 -1.7342383979908904e-03 0.0000000000000000e+00  2.3021330733992075e-02 -1.5408291871060091e-03 0.0000000000000000e+00  2.3614248299379442e-02 -1.2756814754573478e-03 0.0000000000000000e+00  2.3172188406978475e-02 -9.8751171588124052e-04 0.0000000000000000e+00  2.3074267030480100e-02 -7.0695237695362863e-04 0.0000000000000000e+00  2.3785723816245493e-02 -4.3572093173903348e-04 0.0000000000000000e+00  2.0722035548304034e-02 -1.4283239519161922e-04 0.0000000000000000e+00  2.9499847293864647e-02 1.5370956212543588e-04 0.0000000000000000e+00  1.7690291239494730e-02 2.8265154191877291e-04 0.0000000000000000e+00  2.9579278435726830e-02 8.6555689170126726e-04 0.0000000000000000e+00  2.0055951768785343e-02 8.0546941720158888e-04 0.0000000000000000e+00  2.3396278887501766e-02 1.2365277778032468e-03 0.0000000000000000e+00  2.3083175004006209e-02 1.5048236326491789e-03 0.0000000000000000e+00  2.1489767608271537e-02 1.6363400539971939e-03 0.0000000000000000e+00  2.3655227834691778e-02 2.0555578396450037e-03 0.0000000000000000e+00  2.1388038148530932e-02 2.0895985425340310e-03 0.0000000000000000e+00  1.9932209535313404e-02 2.1410230589891653e-03 0.0000000000000000e+00  2.8816950594037768e-02 3.3414537192852688e-03 0.0000000000000000e+00  2.1447279870303010e-02 2.7256431637063443e-03 0.0000000000000000e+00  2.1154724292698355e-02 2.9275118425810330e-03 0.0000000000000000e+00  2.1870188875175712e-02 3.2557518215360678e-03 0.0000000000000000e+00  2.2898627630121404e-02 3.6535692100165005e-03 0.0000000000000000e+00  2.0857735973311382e-02 3.5609118432344657e-03 0.0000000000000000e+00  2.0700891344671752e-02 3.7666057648805648e-03 0.0000000000000000e+00  2.0647496363071650e-02 3.9781919166712075e-03 0.0000000000000000e+00  2.1033517759685084e-02 4.2897056721311888e-03 0.0000000000000000e+00  2.1852256297853367e-02 4.6736462360108810e-03 0.0000000000000000e+00  2.2012468470929539e-02 4.9827755183881042e-03 0.0000000000000000e+00  1.9002196811915090e-02 4.5597373823897834e-03 0.0000000000000000e+00  2.6690181585133151