<?xml version="1.0"?>
<VTKFile type="UnstructuredGrid"  version="0.1"  >
<UnstructuredGrid>
<Piece  NumberOfPoints="4258" NumberOfCells="6732">
<Points>
<DataArray  type="Float64"  NumberOfComponents="3"  format="ascii">0 0.01 0  10 0.01 0  0 1.015641236154565 0  10 1.015641236154565 0  0.007129524987038337 0.009997491741717768 0  0.01258064459049757 0.00999219056738478 0  0.01872173241756402 0.009982708334120727 0  0.02429919625640796 0.009970876572043954 0  0.03017238705920286 0.009955108531615313 0  0.03612352734296466 0.0099356743715591 0  0.04164979236492252 0.009914517792428084 0  0.04780928449023854 0.009887415768096998 0  0.05327287671237849 0.009860276931383746 0  0.0593436395885565 0.009826715421083503 0  0.06505608699933001 0.009791870631895848 0  0.07077243060783153 0.009753845329312128 0  0.07684085351634186 0.009710036052663748 0  0.08230528612367993 0.009667566921662384 0  0.08846525752759338 0.009616276826848907 0  0.09398926586603956 0.0095672187064786 0  0.09994377871281757 0.009511110804477986 0  0.10581288515308 0.009452550633355501 0  0.1113930001121819 0.009393893683773193 0  0.1175326299024069 0.009326020378011352 0  0.122983161250664 0.009262856809916281 0  0.1290978349347763 0.009188765415777931 0  0.1347300222736412 0.00911751981665075 0  0.1405327472005438 0.009041131768776852 0  0.1465421455697866 0.008958856277281909 0  0.1520341809431761 0.008880870879718691 0  0.1581991754706344 0.00879018143976357 0  0.1636834803794234 0.008706732874359017 0  0.1697073563005918 0.008612096527554045 0  0.1754901396361989 0.008518345936558386 0  0.1811391035120075 0.008424050210098115 0  0.1872444279222087 0.00831915423323064 0  0.1926961446341008 0.008222899998379215 0  0.198841090009393 0.008111516418624823 0  0.2044064770158165 0.008008028244452866 0  0.2102948627703611 0.007895869216798803 0  0.2162299794791283 0.007780085801116003 0  0.2217647046821167 0.007669675498109103 0  0.2279204403470532 0.007544154739747676 0  0.2333791472114919 0.007430485124751003 0  0.2394590817234977 0.0073013084386626 0  0.245152498789355 0.007177928079207972 0  0.2508861115607116 0.007051356111670669 0  0.2569419868439766 0.006915186417023598 0  0.2624099649457279 0.006790084113692359 0  0.2685711825796066 0.006646722567663751 0  0.274083748205357 0.006516341894728842 0  0.2800541704182985 0.00637292855786236 0  0.2859022845836161 0.006230279166502627 0  0.291495955429921 0.006091868246150131 0  0.2976275706217687 0.005937986548763313 0  0.3030757324287757 0.005799406374294222 0  0.3091980118239236 0.005641654227187252 0  0.3148109405089491 0.005495191514879527 0  0.3206341933715942 0.005341435282378838 0  0.3266248575896781 0.005181393525330103 0  0.3321252080346692 0.005032833254881577 0  0.3382880718234609 0.004864596209960478 0  0.3437628463580178 0.004713611578807419 0  0.3498021006600692 0.004545443593512952 0  0.3555594631656461 0.004383601001460968 0  0.3612291099056053 0.004222822711549606 0  0.3673210805066339 0.004048576418709386 0  0.3727746135437823 0.003891330909934085 0  0.3789246700786391 0.003712634483246944 0  0.3844721023230384 0.00355025746928806 0  0.3903845048135511 0.003376011435332509 0  0.3962935688476314 0.003200699755406988 0  0.4018430601204535 0.00303505085978487 0  0.4079921977692303 0.002850427660455144 0  0.4134449905916002 0.002685819499171436 0  0.4195385366679084 0.002500937932218923 0  0.425204482428441 0.002328206591247292 0  0.4309651825948974 0.00215183074136113 0  0.4370014133195289 0.001966263547608745 0  0.4424769325836848 0.00179732019881714 0  0.4486395183564056 0.001606544730410899 0  0.4541373275735043 0.001435838569361521 0  0.4601308451156257 0.001249254088784412 0  0.4659488863550298 0.001067707976620331 0  0.471564807260988 0.0008921302908496037 0  0.4776843759254726 0.0007004920228137959 0  0.4831317484445766 0.0005296836585198918 0  0.4892643513384632 0.0003372062279158936 0  0.4948528283485032 0.000161696161435303 0  0.5007056813361916 -2.216943068070812e-05 0  0.5066699093509902 -0.000209526046556915 0  0.5121845298566023 -0.0003826949545447442 0  0.5183439831944545 -0.0005759742926309219 0  0.5238088617282698 -0.0007472800272428554 0  0.5298681543527348 -0.0009369594486414562 0  0.5355929349139432 -0.001115856450691032 0  0.5412927239341832 -0.001293613669039852 0  0.5473668732672543 -0.001482588207084091 0  0.5528259073001393 -0.001651967505962102 0  0.5589819336317072 -0.001842386787779294 0  0.5645100189486582 -0.002012797049529044 0  0.5704524332663232 -0.002195301346534757 0  0.5763298911552834 -0.002375058665203144 0  0.5819006708717119 -0.002544689651648297 0  0.5880413281562127 -0.002730768313747055 0  0.5934904284812221 -0.002895042191696308 0  0.5995995320960693 -0.003078202338538874 0  0.605236779888003 -0.003246210954182579 0  0.6110299855290301 -0.003417806240976177 0  0.6170432999212266 -0.00359472323302265 0  0.6225307972792151 -0.00375505261922207 0  0.6286944373476531 -0.003933803567825084 0  0.6341794289295242 -0.004091634709336539 0  0.6401977648984302 -0.004263413669385436 0  0.6459846030577213 -0.004427148756161272 0  0.6516277670629291 -0.004585409549508515 0  0.6577342305863492 -0.004755038487876419 0  0.6631843111407589 -0.004904958327357115 0  0.6693271588517591 -0.005072208653571043 0  0.6748942591145469 -0.005222152905474348 0  0.6807781354428797 -0.005378892074409919 0  0.6867158102497221 -0.005535201343768038 0  0.6922478556369909 -0.005679100421160843 0  0.6984036264198542 -0.005837205328254034 0  0.7038624132928571 -0.005975584427524931 0  0.7099402809449575 -0.006127588021236129 0  0.7156361945945205 -0.006268012368771779 0  0.7213667017809595 -0.006407263887957157 0  0.7274241898103784 -0.006552202568912044 0  0.7328913375361901 -0.006680980644346233 0  0.7390522654079078 -0.006823736587757829 0  0.7445663161830813 -0.006949337256267011 0  0.7505345306161221 -0.007082931996795786 0  0.7563856967966242 -0.007211490056377221 0  0.7619775509571868 -0.007332073958440476 0  0.7681106054434813 -0.007461725199742056 0  0.7735594228940573 -0.007574589702563127 0  0.7796809699364847 -0.007698739982391196 0  0.7852974086111042 -0.007810142587226769 0  0.7911178568436495 -0.007923025648348906 0  0.797112403703894 -0.008036515862006795 0  0.8026119630288198 -0.008138129173272899 0  0.8087760180262171 -0.008249131188213875 0  0.814253500572072 -0.008345174877796967 0  0.8202905515677629 -0.008448166667805387 0  0.8260544286221699 -0.008543663134562481 0  0.831720415905675 -0.008634807324656511 0  0.8378167080097026 -0.008729817306667463 0  0.8432709709919499 -0.008812108559864256 0  0.8494209576248264 -0.008901791974276371 0  0.8549745826348545 -0.008979924427376591 0  0.8608814329347291 -0.009060026011188804 0  0.8667998142885592 -0.009137155111096256 0  0.8723460990452367 -0.009206568509458774 0  0.8784989383774584 -0.009280301817794542 0  0.8839552890388401 -0.009342788637451834 0  0.8900456692707091 -0.009409293585850673 0  0.8957233874467343 -0.009468190513990782 0  0.9014754209053449 -0.009524786393944277 0  0.9075213579987256 -0.009580921173179099 0  0.9129954731058688 -0.009628765913494807 0  0.9191593188847452 -0.009679229788646495 0  0.9246655330424429 -0.009721240864333262 0  0.9306503084472221 -0.009763603884533442 0  0.9364847200361547 -0.009801580348484516 0  0.9420914259676206 -0.009834972127394636 0  0.948219177636862 -0.009867976960504428 0  0.9536688877131657 -0.009894257783109666 0  0.9597979104438458 -0.009920349306153329 0  0.9654020314719589 -0.009940987600901847 0  0.9712398170272581 -0.009959209624459757 0  0.9772219132298864 -0.009974407121723252 0  0.9827297975109929 -0.009985285083248089 0  0.9888934840407251 -0.009993913310034224 0  0.9943667421923366 -0.009998434045983932 0  1.000414962337846 -0.009999991502249178 0  1.00616395254491 -0.009998125110441144 0  1.011844857354635 -0.009993077234903055 0  1.017933801412069 -0.009984132829796667 0  1.023390946643176 -0.00997301205183276 0  1.029544679732296 -0.009956955598792184 0  1.035089558108845 -0.009939300412459717 0  1.041010936359372 -0.009917116481575694 0  1.04691554237944 -0.00989157814857561 0  1.052471258615448 -0.009864440751261633 0  1.05862104751389 -0.009830897850136421 0  1.064075481579663 -0.009798076706746352 0  1.070173358231585 -0.009757978136698224 0  1.075837941143087 -0.00971752009646258 0  1.081604377355612 -0.009673173917302162 0  1.087640686528322 -0.009623351755525641 0  1.093119387704205 -0.009575135453199036 0  1.099284093826516 -0.009517491101966447 0  1.104783734376909 -0.009463052176492596 0  1.110779897618174 -0.009400480030121557 0  1.116599992234411 -0.00933655469875222 0  1.122217899723542 -0.009271889359757672 0  1.128339818747432 -0.009198135031144493 0  1.133789446190431 -0.00912961705214143 0  1.139923317158062 -0.009049295973540348 0  1.145515844317945 -0.008973134373133167 0  1.151367773813766 -0.008890475161473248 0  1.157336906671575 -0.008803064948780913 0  1.16285160438384 -0.008719557366803981 0  1.16901331600552 -0.008623157866544266 0  1.174481522907442 -0.00853490108265173 0  1.180539122189597 -0.008434191931863186 0  1.186271617394136 -0.008336073959344166 0  1.191966996821913 -0.008235914041393521 0  1.198046448076202 -0.008126091334838595 0  1.203505695906331 -0.008024945109277802 0  1.209661806077474 -0.007908057515838151 0  1.21519584913737 -0.007800455577732041 0  1.221132109188887 -0.00768241304184519 0  1.227019087412133 -0.007562711583992629 0  1.232585135446325 -0.007447155722966398 0  1.238729389023077 -0.007316953404904543 0  1.244180486899644 -0.007199156086382225 0  1.250286093435722 -0.007064709646262071 0  1.255932842016573 -0.006938052500145445 0  1.261716857103797 -0.006806053534187844 0  1.26773845151126 -0.006666245775332091 0  1.273222687278595 -0.006536836953056475 0  1.279386853652711 -0.00638906998029936 0  1.284876650734994 -0.006255450389977176 0  1.290887326898431 -0.00610702037198264 0  1.296685536664392 -0.00596177282270944 0  1.30231949087952 -0.005818744638503708 0  1.308431215520824
[...]
<PointData  Vectors="Velocity"> 
<DataArray  type="Float64"  Name="Velocity"  NumberOfComponents="3" format="ascii">-5.6797673953911015e-10 9.7039118676593183e-01 0.0000000000000000e+00  -5.6797673953911015e-10 9.7039118676593183e-01 0.0000000000000000e+00  -2.7835085843483820e-06 -2.7899448529464767e-02 0.0000000000000000e+00  -2.7835085843483820e-06 -2.7899448529464767e-02 0.0000000000000000e+00  6.8276960963349067e-04 9.7039837324832900e-01 0.0000000000000000e+00  1.2046097180208575e-03 9.7041356190688588e-01 0.0000000000000000e+00  1.7921087811474331e-03 9.7044073059645153e-01 0.0000000000000000e+00  2.3251659119792587e-03 9.7047463239614584e-01 0.0000000000000000e+00  2.8857806414827373e-03 9.7051981477574811e-01 0.0000000000000000e+00  3.4529208613069983e-03 9.7057550524264080e-01 0.0000000000000000e+00  3.9785895389853679e-03 9.7063613546233318e-01 0.0000000000000000e+00  4.5631959218565016e-03 9.7071380995695722e-01 0.0000000000000000e+00  5.0804557352584863e-03 9.7079159646361102e-01 0.0000000000000000e+00  5.6535894149688714e-03 9.7088780114188655e-01 0.0000000000000000e+00  6.1911849729111672e-03 9.7098769527624607e-01 0.0000000000000000e+00  6.7273237749627601e-03 9.7109671998386704e-01 0.0000000000000000e+00  7.2943112290009913e-03 9.7122234430512921e-01 0.0000000000000000e+00  7.8027989604271299e-03 9.7134414215509735e-01 0.0000000000000000e+00  8.3734823575744785e-03 9.7149125979467310e-01 0.0000000000000000e+00  8.8828128101381670e-03 9.7163199779213061e-01 0.0000000000000000e+00  9.4290926491926320e-03 9.7179298649126999e-01 0.0000000000000000e+00  9.9645792766267036e-03 9.7196104193739774e-01 0.0000000000000000e+00  1.0470825099993196e-02 9.7212940658708891e-01 0.0000000000000000e+00  1.1024417197074044e-02 9.7232426402179228e-01 0.0000000000000000e+00  1.1512728583783880e-02 9.7250563743828888e-01 0.0000000000000000e+00  1.2056846814073935e-02 9.7271843642842282e-01 0.0000000000000000e+00  1.2554419773297080e-02 9.7292310937445525e-01 0.0000000000000000e+00  1.3063278845865604e-02 9.7314260651170537e-01 0.0000000000000000e+00  1.3586051642473500e-02 9.7337907986780292e-01 0.0000000000000000e+00  1.4059924466354951e-02 9.7360327989060602e-01 0.0000000000000000e+00  1.4587263056760853e-02 9.7386407266926667e-01 0.0000000000000000e+00  1.5052142690991583e-02 9.7410410932477753e-01 0.0000000000000000e+00  1.5558003863518651e-02 9.7437640355382094e-01 0.0000000000000000e+00  1.6038780530725903e-02 9.7464623024869768e-01 0.0000000000000000e+00  1.6503708687039174e-02 9.7491770735744565e-01 0.0000000000000000e+00  1.7000786687994322e-02 9.7521979773934109e-01 0.0000000000000000e+00  1.7439759593821290e-02 9.7549708870678409e-01 0.0000000000000000e+00  1.7928861383144465e-02 9.7581807130455123e-01 0.0000000000000000e+00  1.8366488419695258e-02 9.7611640350207951e-01 0.0000000000000000e+00  1.8823834812076917e-02 9.7643984221300273e-01 0.0000000000000000e+00  1.9278750763902813e-02 9.7677385352852586e-01 0.0000000000000000e+00  1.9697357388110334e-02 9.7709248018301997e-01 0.0000000000000000e+00  2.0156412568857567e-02 9.7745484952174166e-01 0.0000000000000000e+00  2.0557608219729406e-02 9.7778313047011256e-01 0.0000000000000000e+00  2.0997815265719737e-02 9.7815634068703283e-01 0.0000000000000000e+00  2.1403550065846374e-02 9.7851294895883500e-01 0.0000000000000000e+00  2.1805669186348530e-02 9.7887892856251302e-01 0.0000000000000000e+00  2.2223184991501693e-02 9.7927282489162137e-01 0.0000000000000000e+00  2.2593696130312733e-02 9.7963485750711177e-01 0.0000000000000000e+00  2.3003664856450962e-02 9.8004991012559906e-01 0.0000000000000000e+00  2.3363614105944432e-02 9.8042754718744352e-01 0.0000000000000000e+00  2.3746003650659615e-02 9.8084311424780668e-01 0.0000000000000000e+00  2.4112924590614728e-02 9.8125665755502212e-01 0.0000000000000000e+00  2.4456703426473346e-02 9.8165809539420534e-01 0.0000000000000000e+00  2.4825328585001027e-02 9.8210461367511726e-01 0.0000000000000000e+00  2.5145552988210147e-02 9.8250692009151963e-01 0.0000000000000000e+00  2.5497061690146681e-02 9.8296510332137843e-01 0.0000000000000000e+00  2.5811462116838844e-02 9.8339070649301552e-01 0.0000000000000000e+00  2.6129576864326501e-02 9.8383772023294858e-01 0.0000000000000000e+00  2.6448150387158087e-02 9.8430324292570781e-01 0.0000000000000000e+00  2.6732788545337050e-02 9.8473558473901279e-01 0.0000000000000000e+00  2.7042654993791247e-02 9.8522544190314165e-01 0.0000000000000000e+00  2.7309799302907136e-02 9.8566529262689939e-01 0.0000000000000000e+00  2.7595510189055910e-02 9.8615545479883815e-01 0.0000000000000000e+00  2.7859019850255622e-02 9.8662743344901249e-01 0.0000000000000000e+00  2.8109960356139253e-02 9.8709655501615634e-01 0.0000000000000000e+00  2.8370030253609912e-02 9.8760525032370883e-01 0.0000000000000000e+00  2.8594361681934823e-02 9.8806455997996723e-01 0.0000000000000000e+00  2.8837620881833292e-02 9.8858681432339091e-01 0.0000000000000000e+00  2.9048129549578385e-02 9.8906163848859385e-01 0.0000000000000000e+00  2.9263084772735481e-02 9.8957144953165188e-01 0.0000000000000000e+00  2.9468143707146177e-02 9.9008467059789929e-01 0.0000000000000000e+00  2.9651748405430473e-02 9.9056987568022248e-01 0.0000000000000000e+00  2.9844957159063604e-02 9.9111096901224971e-01 0.0000000000000000e+00  3.0007216394718761e-02 9.9159367801586640e-01 0.0000000000000000e+00  3.0178377977117983e-02 9.9213614867205235e-01 0.0000000000000000e+00  3.0327838593607836e-02 9.9264326724704388e-01 0.0000000000000000e+00  3.0470157063190808e-02 9.9316138329361892e-01 0.0000000000000000e+00  3.0608791296411260e-02 9.9370682340986516e-01 0.0000000000000000e+00  3.0725205027562319e-02 9.9420368995460406e-01 0.0000000000000000e+00  3.0845531535112495e-02 9.9476509948978464e-01 0.0000000000000000e+00  3.0943271083856420e-02 9.9526774979973587e-01 0.0000000000000000e+00  3.1039447098642550e-02 9.9581747761561212e-01 0.0000000000000000e+00  3.1122411552358311e-02 9.9635268623617768e-01 0.0000000000000000e+00  3.1192734199384922e-02 9.9687060702138031e-01 0.0000000000000000e+00  3.1258405403536700e-02 9.9743624723108204e-01 0.0000000000000000e+00  3.1307217356578237e-02 9.9794070782407251e-01 0.0000000000000000e+00  3.1351261023411632e-02 9.9850950869633903e-01 0.0000000000000000e+00  3.1381299593987305e-02 9.9902848668334099e-01 0.0000000000000000e+00  3.1402416388586797e-02 9.9957249649206259e-01 0.0000000000000000e+00  3.1413023296152962e-02 1.0001271770920079e+00 0.0000000000000000e+00  3.1413007909794947e-02 1.0006401624693944e+00 0.0000000000000000e+00  3.1401818382615916e-02 1.0012130728170932e+00 0.0000000000000000e+00  3.1382005859741387e-02 1.0017211594336071e+00 0.0000000000000000e+00  3.1349163834783922e-02 1.0022840801429829e+00 0.0000000000000000e+00  3.1307621916031730e-02 1.0028153293795614e+00 0.0000000000000000e+00  3.1256111566276612e-02 1.0033435104140209e+00 0.0000000000000000e+00  3.1190071387689665e-02 1.0039053670717704e+00 0.0000000000000000e+00  3.1120910380650759e-02 1.0044092651720637e+00 0.0000000000000000e+00  3.1031787354072481e-02 1.0049761004373501e+00 0.0000000000000000e+00  3.0941711886900185e-02 1.0054836821190356e+00 0.0000000000000000e+00  3.0834301729110284e-02 1.0060276092702058e+00 0.0000000000000000e+00  3.0717298643842737e-02 1.0065636756796166e+00 0.0000000000000000e+00  3.0596539151949188e-02 1.0070698429403158e+00 0.0000000000000000e+00  3.0452333002951609e-02 1.0076254227852763e+00 0.0000000000000000e+00  3.0314653246061862e-02 1.0081161897253499e+00 0.0000000000000000e+00  3.0149475751471755e-02 1.0086637003076875e+00 0.0000000000000000e+00  2.9986941142438793e-02 1.0091662189436403e+00 0.0000000000000000e+00  2.9809838634070145e-02 1.0096797613064226e+00 0.0000000000000000e+00  2.9615255469799727e-02 1.0102095427826863e+00 0.0000000000000000e+00  2.9428176324257652e-02 1.0106899264989395e+00 0.0000000000000000e+00  2.9207280481131137e-02 1.0112258155539950e+00 0.0000000000000000e+00  2.9001180302769644e-02 1.0116992594265717e+00 0.0000000000000000e+00  2.8764782980324397e-02 1.0122148306082128e+00 0.0000000000000000e+00  2.8527419465081482e-02 1.0127065399061592e+00 0.0000000000000000e+00  2.8286520041573733e-02 1.0131820718423652e+00 0.0000000000000000e+00  2.8015428258156325e-02 1.0136920474155335e+00 0.0000000000000000e+00  2.7764406038859539e-02 1.0141430144550450e+00 0.0000000000000000e+00  2.7471301642179695e-02 1.0146463861072768e+00 0.0000000000000000e+00  2.7196438779222558e-02 1.0150979177427166e+00 0.0000000000000000e+00  2.6896479518799032e-02 1.0155701591682871e+00 0.0000000000000000e+00  2.6584021533372235e-02 1.0160413575179228e+00 0.0000000000000000e+00  2.6284181340370083e-02 1.0164753685005996e+00 0.0000000000000000e+00  2.5940739518831336e-02 1.0169524737282216e+00 0.0000000000000000e+00  2.5627647255852450e-02 1.0173702665459130e+00 0.0000000000000000e+00  2.5269720298918889e-02 1.0178294226011624e+00 0.0000000000000000e+00  2.4925468242752331e-02 1.0182538152830594e+00 0.0000000000000000e+00  2.4570633132112073e-02 1.0186748670441981e+00 0.0000000000000000e+00  2.4186401421615690e-02 1.0191133296340138e+00 0.0000000000000000e+00  2.3831652849966117e-02 1.0195030870564032e+00 0.0000000000000000e+00  2.3422976914444116e-02 1.0199353531056143e+00 0.0000000000000000e+00  2.3049315393923592e-02 1.0203158500135059e+00 0.0000000000000000e+00  2.2636608246162374e-02 1.0207207453023639e+00 0.0000000000000000e+00  2.2223784233523603e-02 1.0211105517268118e+00 0.0000000000000000e+00  2.1821792080332199e-02 1.0214763378460241e+00 0.0000000000000000e+00  2.1372651066425802e-02 1.0218698002834843e+00 0.0000000000000000e+00  2.0966517734411116e-02 1.0222124627127773e+00 0.0000000000000000e+00  2.0502430498820879e-02 1.0225895438591686e+00 0.0000000000000000e+00  2.0069504939460567e-02 1.0229280456378869e+00 0.0000000000000000e+00  1.9613813437201331e-02 1.0232711798239567e+00 0.0000000000000000e+00  1.9137152152554744e-02 1.0236162951747478e+00 0.0000000000000000e+00  1.8693448138239213e-02 1.0239254088281704e+00 0.0000000000000000e+00  1.8189027660253584e-02 1.0242632092522461e+00 0.0000000000000000e+00  1.7734645384636101e-02 1.0245555944954516e+00 0.0000000000000000e+00  1.7227311998972435e-02 1.0248692399844150e+00 0.0000000000000000e+00  1.6736719913915225e-02 1.0251601599544862e+00 0.0000000000000000e+00  1.6248704267840405e-02 1.0254379123604802e+00 0.0000000000000000e+00  1.5717439033373071e-02 1.0257275394649430e+00 0.0000000000000000e+00  1.5236854975289871e-02 1.0259784722415464e+00 0.0000000000000000e+00  1.4689188547650325e-02 1.0262520284315693e+00 0.0000000000000000e+00  1.4189536913862190e-02 1.0264904217513164e+00 0.0000000000000000e+00  1.3652993515481569e-02 1.0267348908038600e+00 0.0000000000000000e+00  1.3110307012351977e-02 1.0269703522931861e+00 0.0000000000000000e+00  1.2597288274220030e-02 1.0271823133650868e+00 0.0000000000000000e+00  1.2023330572151115e-02 1.0274075226367831e+00 0.0000000000000000e+00  1.1510266965946899e-02 1.0275984265847604e+00 0.0000000000000000e+00  1.0933268021293135e-02 1.0278016518924975e+00 0.0000000000000000e+00  1.0391451092682795e-02 1.0279816681957297e+00 0.0000000000000000e+00  9.8388865604601364e-03 1.0281546868619793e+00 0.0000000000000000e+00  9.2543360249345060e-03 1.0283263297548622e+00 0.0000000000000000e+00  8.7219400916750713e-03 1.0284726505957815e+00 0.0000000000000000e+00  8.1191195277843745e-03 1.0286270083196036e+00 0.0000000000000000e+00  7.5778126609515875e-03 1.0287555319389579e+00 0.0000000000000000e+00  6.9866674185535280e-03 1.0288851512606410e+00 0.0000000000000000e+00  6.4077897059527092e-03 1.0290013651101808e+00 0.0000000000000000e+00  5.8492977484958320e-03 1.0291035621510607e+00 0.0000000000000000e+00  5.2366488815941293e-03 1.0292045866782487e+00 0.0000000000000000e+00  4.6900118805347450e-03 1.0292850381443048e+00 0.0000000000000000e+00  4.0734522941477591e-03 1.0293649172078778e+00 0.0000000000000000e+00  3.5082540655659591e-03 1.0294281065597004e+00 0.0000000000000000e+00  2.9182341636184959e-03 1.0294839018033393e+00 0.0000000000000000e+00  2.3125204798843308e-03 1.0295304386589146e+00 0.0000000000000000e+00  1.7540314370746816e-03 1.0295637499705477e+00 0.0000000000000000e+00  1.1283759523642678e-03 1.0295901729669130e+00 0.0000000000000000e+00  5.7240996841403469e-04 1.0296040176080066e+00 0.0000000000000000e+00  -4.2167574602268155e-05 1.0296087872615998e+00 0.0000000000000000e+00  -6.2632703901271177e-04 1.0296030715252835e+00 0.0000000000000000e+00  -1.2033509719320129e-03 1.0295876126046155e+00 0.0000000000000000e+00  -1.8213528113713246e-03 1.0295602213988739e+00 0.0000000000000000e+00  -2.3746188317485184e-03 1.0295261666473570e+00 0.0000000000000000e+00  -2.9975886740448328e-03 1.0294769999314475e+00 0.0000000000000000e+00  -3.5578826665184095e-03 1.0294229406928119e+00 0.0000000000000000e+00  -4.1549195262560639e-03 1.0293550195355994e+00 0.0000000000000000e+00  -4.7487055344142921e-03 1.0292768346407697e+00 0.0000000000000000e+00  -5.3057866466001006e-03 1.0291937621666041e+00 0.0000000000000000e+00  -5.9203791165702213e-03 1.0290910920342804e+00 0.0000000000000000e+00  -6.4634775896962454e-03 1.0289906427380053e+00 0.0000000000000000e+00  -7.0681896643841960e-03 1.0288679367178908e+00 0.0000000000000000e+00  -7.6274138293549116e-03 1.0287441484120521e+00 0.0000000000000000e+00  -8.1939933630982911e-03 1.0286084834487361e+00 0.0000000000000000e+00  -8.7839585990767029e-03 1.0284560915167780e+00 0.0000000000000000e+00  -9.3164626933393453e-03 1.0283086371870618e+00 0.0000000000000000e+00  -9.9120550665327441e-03 1.0281323827789197e+00 0.0000000000000000e+00  -1.0439993652407107e-02 1.0279659616715318e+00 0.0000000000000000e+00  -1.1011742700531070e-02 1.0277747165819160e+00 0.0000000000000000e+00  -1.1562652251295633e-02 1.0275793792256114e+00 0.0000000000000000e+00  -1.2090455263568386e-02 1.0273818251019413e+00 0.0000000000000000e+00  -1.2660963494942242e-02 1.0271565582818232e+00 0.0000000000000000e+00  -1.3164563503097413e-02 1.0269473368287689e+00 0.0000000000000000e+00  -1.3726400048053694e-02 1.0267021387404029e+00 0.0000000000000000e+00  -1.4233855728779292e-02 1.0264697019016678e+00 0.0000000000000000e+00  -1.4759763696105025e-02 1.0262175047286368e+00 0.0000000000000000e+00  -1.5290659864819483e-02 1.0259508915080793e+00 0.0000000000000000e+00  -1.5775993908598900e-02 1.0256962585301401e+00 0.0000000000000000e+00  -1.6312221119149095e-02 1.0254024071620680e+00 0.0000000000000000e+00  -1.6782596149576248e-02 1.0251334631509343e+00 0.0000000000000000e+00  -1.7297437331196184e-02 1.0248266749258590e+00 0.0000000000000000e+00  -1.7778450780603184e-02 1.0245278843941816e+00 0.0000000000000000e+00  -1.8250221958890509e-02 1.0242229803917460e+00 0.0000000000000000e+00  -1.8746885030961120e-02 1.0238887833211674e+00 0.0000000000000000e+00  -1.9186633433689620e-02 1.0235811027204553e+00 0.0000000000000000e+00  -1.9675263777581352e-02 1.0232256730299041e+00 0.0000000000000000e+00  -2.0107796998347884e-02 1.0228986062970096e+00 0.0000000000000000e+00  -2.0564552033687209e-02 1.0225399447030012e+00 0.0000000000000000e+00  -2.1009950742542700e-02 1.0221763933329426e+00 0.0000000000000000e+00  -2.1424037862041865e-02 1.0218255766024684e+00 0.0000000000000000e+00  -2.1873011438678022e-02 1.0214304623426138e+00 0.0000000000000000e+00  -2.2264083874901471e-02 1.0210731456568141e+00 0.0000000000000000e+00  -2.2693859548071141e-02 1.0206655058694223e+00 0.0000000000000000e+00  -2.3083442457753536e-02 1.0202816572757776e+00 0.0000000000000000e+00  -2.3474503766074656e-02 1.0198817975918801e+00 0.0000000000000000e+00  -2.3872897239965864e-02 1.0194584819787333e+00 0.0000000000000000e+00  -2.4227871019871169e-02 1.0190668356942121e+00 0.0000000000000000e+00  -2.4617772519029728e-02 1.0186198434554687e+00 0.0000000000000000e+00  -2.4956809018046647e-02 1.0182158422092915e+00 0.0000000000000000e+00  -2.5319030782327584e-02 1.0177672796638695e+00 0.0000000000000000e+00  -2.5659434091284333e-02 1.0173285573795072e+00 0.0000000000000000e+00  -2.5981616078071226e-02 1.0168967529168043e+00 0.0000000000000000e+00  -2.6321441717784940e-02 1.0164223569830035e+00 0.0000000000000000e+00  -2.6615844188811837e-02 1.0159942809281333e+00 0.0000000000000000e+00  -2.6937751523716507e-02 1.0155063887502083e+00 0.0000000000000000e+00  -2.7220951780715655e-02 1.0150584042100086e+00 0.0000000000000000e+00  -2.7509848937533166e-02 1.0145815287876310e+00 0.0000000000000000e+00  -2.7792461477330915e-02 1.0140935606261248e+00 0.0000000000000000e+00  -2.8045952851384583e-02 1.0136358711322706e+00 0.0000000000000000e+00  -2.8318067013138448e-02 1.0131210809909197e+00 0.0000000000000000e+00  -2.8550161418864874e-02 1.0126604807774600e+00 0.0000000000000000e+00  -2.8797959692879193e-02 1.0121441118729353e+00 0.0000000000000000e+00  -2.9020963222596063e-02 1.0116548376090964e+00 0.0000000000000000e+00  -2.9234783180911269e-02 1.0111607927809931e+00 0.0000000000000000e+00  -2.9450816473452528e-02 1.0106331682314769e+00 0.0000000000000000e+00  -2.9636038025105893e-02 1.0101545225307977e+00 0.0000000000000000e+00  -2.9834033360901187e-02 1.0096115007136020e+00 0.0000000000000000e+00  -3.0001676100783272e-02 1.0091220131617240e+00 0.0000000000000000e+00  -3.0172285713303205e-02 1.0085904943451987e+00 0.0000000000000000e+00  -3.0329465942608713e-02 1.0080650240788369e+00 0.0000000000000000e+00  -3.0469457030859858e-02 1.0075618598306781e+00 0.0000000000000000e+00  -3.0612204941743864e-02 1.0070064967039780e+00 0.0000000000000000e+00  -3.0729228768583226e-02 1.0065112811463246e+00 0.0000000000000000e+00  -3.0849682954285251e-02 1.0059531297046844e+00 0.0000000000000000e+00  -3.0950152510436122e-02 1.0054383732519738e+00 0.0000000000000000e+00  -3.1043702559254018e-02 1.0049046131655428e+00 0.0000000000000000e+00  -3.1129247930166346e-02 1.0043520658076790e+00 0.0000000000000000e+00  -3.1197764581321331e-02 1.0038447392119250e+00 0.0000000000000000e+00  -3.1263423314835288e-02 1.0032745427222221e+00 0.0000000000000000e+00  -3.1311842761989769e-02 1.0027668474977052e+00 0.0000000000000000e+00  -3.1354340860748148e-02 1.0022070640919925e+00 0.0000000000000000e+00  -3.1384373535440116e-02 1.0016712034166864e+00 0.0000000000000000e+00  -3.1403771025877554e-02 1.0011449835032642e+00 0.0000000000000000e+00  -3.1413515971783768e-02 1.0005778904958966e+00 0.0000000000000000e+00  -3.1412448301835948e-02 1.0000707724291296e+00 0.0000000000000000e+00  -3.1400186416463471e-02 9.9949909332709930e-01 0.0000000000000000e+00  -3.1379054203571309e-02 9.9898296680426013e-01 0.0000000000000000e+00  -3.1346145870064582e-02 9.9843489472435887e-01 0.0000000000000000e+00  -3.1302376538893360e-02 9.9788607435151477e-01 0.0000000000000000e+00  -3.1251622278659040e-02 9.9737284170300156e-01 0.0000000000000000e+00  -3.1184292673733786e-02 9.9680443458984258e-01 0.0000000000000000e+00  -3.1114938434987603e-02 9.9630157438719746e-01 0.0000000000000000e+00  -3.1026847066890951e-02 9.9574167417521420e-01 0.0000000000000000e+00  -3.0934644321995927e-02 9.9522137378912567e-01 0.0000000000000000e+00  -3.0831310510418198e-02 9.9469576486841116e-01 0.0000000000000000e+00  -3.0712062942624765e-02 9.9414553401309558e-01 0.0000000000000000e+00  -3.0594675735615869e-02 9.9364916821209415e-01 0.0000000000000000e+00  -3.0451879695400582e-02 9.9309265855463236e-01 0.0000000000000000e+00  -3.0314922767443415e-02 9.9259805035400461e-01 0.0000000000000000e+00  -3.0155860194957723e-02 9.9206260157772097e-01 0.0000000000000000e+00  -2.9990998081296492e-02 9.9154413903747585e-01 0.0000000000000000e+00  -2.9823079564252467e-02 9.9104796845661036e-01 0.0000000000000000e+00  -2.9629447422078865e-02 9.9050952602850717e-01 0.0000000000000000e+00  -2.9448234944243933e-02 9.9003358671891661e-01 0.0000000000000000e+00  -2.9234326808888062e-02 9.8950166226040104e-01 0.0000000000000000e+00  -2.9029852537695522e-02 9.8901950330863175e-01 0.0000000000000000e+00  -2.8807085275167992e-02 9.88519