<?xml version="1.0"?>
<VTKFile type="UnstructuredGrid"  version="0.1"  >
<UnstructuredGrid>
<Piece  NumberOfPoints="4308" NumberOfCells="6832">
<Points>
<DataArray  type="Float64"  NumberOfComponents="3"  format="ascii">0 0.01 0  10 0.01 0  0 1.011043849308668 0  10 1.011043849308668 0  0.007129524987038337 0.009997491741717768 0  0.01258064459049757 0.00999219056738478 0  0.01872173241756402 0.009982708334120727 0  0.02429919625640796 0.009970876572043954 0  0.03017238705920286 0.009955108531615313 0  0.03612352734296466 0.0099356743715591 0  0.04164979236492252 0.009914517792428084 0  0.04780928449023854 0.009887415768096998 0  0.05327287671237849 0.009860276931383746 0  0.0593436395885565 0.009826715421083503 0  0.06505608699933001 0.009791870631895848 0  0.07077243060783153 0.009753845329312128 0  0.07684085351634186 0.009710036052663748 0  0.08230528612367993 0.009667566921662384 0  0.08846525752759338 0.009616276826848907 0  0.09398926586603956 0.0095672187064786 0  0.09994377871281757 0.009511110804477986 0  0.10581288515308 0.009452550633355501 0  0.1113930001121819 0.009393893683773193 0  0.1175326299024069 0.009326020378011352 0  0.122983161250664 0.009262856809916281 0  0.1290978349347763 0.009188765415777931 0  0.1347300222736412 0.00911751981665075 0  0.1405327472005438 0.009041131768776852 0  0.1465421455697866 0.008958856277281909 0  0.1520341809431761 0.008880870879718691 0  0.1581991754706344 0.00879018143976357 0  0.1636834803794234 0.008706732874359017 0  0.1697073563005918 0.008612096527554045 0  0.1754901396361989 0.008518345936558386 0  0.1811391035120075 0.008424050210098115 0  0.1872444279222087 0.00831915423323064 0  0.1926961446341008 0.008222899998379215 0  0.198841090009393 0.008111516418624823 0  0.2044064770158165 0.008008028244452866 0  0.2102948627703611 0.007895869216798803 0  0.2162299794791283 0.007780085801116003 0  0.2217647046821167 0.007669675498109103 0  0.2279204403470532 0.007544154739747676 0  0.2333791472114919 0.007430485124751003 0  0.2394590817234977 0.0073013084386626 0  0.245152498789355 0.007177928079207972 0  0.2508861115607116 0.007051356111670669 0  0.2569419868439766 0.006915186417023598 0  0.2624099649457279 0.006790084113692359 0  0.2685711825796066 0.006646722567663751 0  0.274083748205357 0.006516341894728842 0  0.2800541704182985 0.00637292855786236 0  0.2859022845836161 0.006230279166502627 0  0.291495955429921 0.006091868246150131 0  0.2976275706217687 0.005937986548763313 0  0.3030757324287757 0.005799406374294222 0  0.3091980118239236 0.005641654227187252 0  0.3148109405089491 0.005495191514879527 0  0.3206341933715942 0.005341435282378838 0  0.3266248575896781 0.005181393525330103 0  0.3321252080346692 0.005032833254881577 0  0.3382880718234609 0.004864596209960478 0  0.3437628463580178 0.004713611578807419 0  0.3498021006600692 0.004545443593512952 0  0.3555594631656461 0.004383601001460968 0  0.3612291099056053 0.004222822711549606 0  0.3673210805066339 0.004048576418709386 0  0.3727746135437823 0.003891330909934085 0  0.3789246700786391 0.003712634483246944 0  0.3844721023230384 0.00355025746928806 0  0.3903845048135511 0.003376011435332509 0  0.3962935688476314 0.003200699755406988 0  0.4018430601204535 0.00303505085978487 0  0.4079921977692303 0.002850427660455144 0  0.4134449905916002 0.002685819499171436 0  0.4195385366679084 0.002500937932218923 0  0.425204482428441 0.002328206591247292 0  0.4309651825948974 0.00215183074136113 0  0.4370014133195289 0.001966263547608745 0  0.4424769325836848 0.00179732019881714 0  0.4486395183564056 0.001606544730410899 0  0.4541373275735043 0.001435838569361521 0  0.4601308451156257 0.001249254088784412 0  0.4659488863550298 0.001067707976620331 0  0.471564807260988 0.0008921302908496037 0  0.4776843759254726 0.0007004920228137959 0  0.4831317484445766 0.0005296836585198918 0  0.4892643513384632 0.0003372062279158936 0  0.4948528283485032 0.000161696161435303 0  0.5007056813361916 -2.216943068070812e-05 0  0.5066699093509902 -0.000209526046556915 0  0.5121845298566023 -0.0003826949545447442 0  0.5183439831944545 -0.0005759742926309219 0  0.5238088617282698 -0.0007472800272428554 0  0.5298681543527348 -0.0009369594486414562 0  0.5355929349139432 -0.001115856450691032 0  0.5412927239341832 -0.001293613669039852 0  0.5473668732672543 -0.001482588207084091 0  0.5528259073001393 -0.001651967505962102 0  0.5589819336317072 -0.001842386787779294 0  0.5645100189486582 -0.002012797049529044 0  0.5704524332663232 -0.002195301346534757 0  0.5763298911552834 -0.002375058665203144 0  0.5819006708717119 -0.002544689651648297 0  0.5880413281562127 -0.002730768313747055 0  0.5934904284812221 -0.002895042191696308 0  0.5995995320960693 -0.003078202338538874 0  0.605236779888003 -0.003246210954182579 0  0.6110299855290301 -0.003417806240976177 0  0.6170432999212266 -0.00359472323302265 0  0.6225307972792151 -0.00375505261922207 0  0.6286944373476531 -0.003933803567825084 0  0.6341794289295242 -0.004091634709336539 0  0.6401977648984302 -0.004263413669385436 0  0.6459846030577213 -0.004427148756161272 0  0.6516277670629291 -0.004585409549508515 0  0.6577342305863492 -0.004755038487876419 0  0.6631843111407589 -0.004904958327357115 0  0.6693271588517591 -0.005072208653571043 0  0.6748942591145469 -0.005222152905474348 0  0.6807781354428797 -0.005378892074409919 0  0.6867158102497221 -0.005535201343768038 0  0.6922478556369909 -0.005679100421160843 0  0.6984036264198542 -0.005837205328254034 0  0.7038624132928571 -0.005975584427524931 0  0.7099402809449575 -0.006127588021236129 0  0.7156361945945205 -0.006268012368771779 0  0.7213667017809595 -0.006407263887957157 0  0.7274241898103784 -0.006552202568912044 0  0.7328913375361901 -0.006680980644346233 0  0.7390522654079078 -0.006823736587757829 0  0.7445663161830813 -0.006949337256267011 0  0.7505345306161221 -0.007082931996795786 0  0.7563856967966242 -0.007211490056377221 0  0.7619775509571868 -0.007332073958440476 0  0.7681106054434813 -0.007461725199742056 0  0.7735594228940573 -0.007574589702563127 0  0.7796809699364847 -0.007698739982391196 0  0.7852974086111042 -0.007810142587226769 0  0.7911178568436495 -0.007923025648348906 0  0.797112403703894 -0.008036515862006795 0  0.8026119630288198 -0.008138129173272899 0  0.8087760180262171 -0.008249131188213875 0  0.814253500572072 -0.008345174877796967 0  0.8202905515677629 -0.008448166667805387 0  0.8260544286221699 -0.008543663134562481 0  0.831720415905675 -0.008634807324656511 0  0.8378167080097026 -0.008729817306667463 0  0.8432709709919499 -0.008812108559864256 0  0.8494209576248264 -0.008901791974276371 0  0.8549745826348545 -0.008979924427376591 0  0.8608814329347291 -0.009060026011188804 0  0.8667998142885592 -0.009137155111096256 0  0.8723460990452367 -0.009206568509458774 0  0.8784989383774584 -0.009280301817794542 0  0.8839552890388401 -0.009342788637451834 0  0.8900456692707091 -0.009409293585850673 0  0.8957233874467343 -0.009468190513990782 0  0.9014754209053449 -0.009524786393944277 0  0.9075213579987256 -0.009580921173179099 0  0.9129954731058688 -0.009628765913494807 0  0.9191593188847452 -0.009679229788646495 0  0.9246655330424429 -0.009721240864333262 0  0.9306503084472221 -0.009763603884533442 0  0.9364847200361547 -0.009801580348484516 0  0.9420914259676206 -0.009834972127394636 0  0.948219177636862 -0.009867976960504428 0  0.9536688877131657 -0.009894257783109666 0  0.9597979104438458 -0.009920349306153329 0  0.9654020314719589 -0.009940987600901847 0  0.9712398170272581 -0.009959209624459757 0  0.9772219132298864 -0.009974407121723252 0  0.9827297975109929 -0.009985285083248089 0  0.9888934840407251 -0.009993913310034224 0  0.9943667421923366 -0.009998434045983932 0  1.000414962337846 -0.009999991502249178 0  1.00616395254491 -0.009998125110441144 0  1.011844857354635 -0.009993077234903055 0  1.017933801412069 -0.009984132829796667 0  1.023390946643176 -0.00997301205183276 0  1.029544679732296 -0.009956955598792184 0  1.035089558108845 -0.009939300412459717 0  1.041010936359372 -0.009917116481575694 0  1.04691554237944 -0.00989157814857561 0  1.052471258615448 -0.009864440751261633 0  1.05862104751389 -0.009830897850136421 0  1.064075481579663 -0.009798076706746352 0  1.070173358231585 -0.009757978136698224 0  1.075837941143087 -0.00971752009646258 0  1.081604377355612 -0.009673173917302162 0  1.087640686528322 -0.009623351755525641 0  1.093119387704205 -0.009575135453199036 0  1.099284093826516 -0.009517491101966447 0  1.104783734376909 -0.009463052176492596 0  1.110779897618174 -0.009400480030121557 0  1.116599992234411 -0.00933655469875222 0  1.122217899723542 -0.009271889359757672 0  1.128339818747432 -0.009198135031144493 0  1.133789446190431 -0.00912961705214143 0  1.139923317158062 -0.009049295973540348 0  1.145515844317945 -0.008973134373133167 0  1.151367773813766 -0.008890475161473248 0  1.157336906671575 -0.008803064948780913 0  1.16285160438384 -0.008719557366803981 0  1.16901331600552 -0.008623157866544266 0  1.174481522907442 -0.00853490108265173 0  1.180539122189597 -0.008434191931863186 0  1.186271617394136 -0.008336073959344166 0  1.191966996821913 -0.008235914041393521 0  1.198046448076202 -0.008126091334838595 0  1.203505695906331 -0.008024945109277802 0  1.209661806077474 -0.007908057515838151 0  1.21519584913737 -0.007800455577732041 0  1.221132109188887 -0.00768241304184519 0  1.227019087412133 -0.007562711583992629 0  1.232585135446325 -0.007447155722966398 0  1.238729389023077 -0.007316953404904543 0  1.244180486899644 -0.007199156086382225 0  1.250286093435722 -0.007064709646262071 0  1.255932842016573 -0.006938052500145445 0  1.261716857103797 -0.006806053534187844 0  1.26773845151126 -0.006666245775332091 0  1.273222687278595 -0.006536836953056475 0  1.279386853652711 -0.00638906998029936 0  1.284876650734994 -0.006255450389977176 0  1.290887326898431 -0.00610702037198264 0  1.296685536664392 -0.00596177282270944 0  1.30231949087952 -0.005818744638503708 0  1.308431215520824
[...]
<PointData  Vectors="Velocity"> 
<DataArray  type="Float64"  Name="Velocity"  NumberOfComponents="3" format="ascii">-4.3436516471518273e-10 9.7039118677010294e-01 0.0000000000000000e+00  -4.3436516471518273e-10 9.7039118677010294e-01 0.0000000000000000e+00  -1.0021220480325477e-06 -2.3950779052549873e-02 0.0000000000000000e+00  -1.0021220480325477e-06 -2.3950779052549873e-02 0.0000000000000000e+00  6.8276953537238754e-04 9.7039837325236222e-01 0.0000000000000000e+00  1.2046096655612397e-03 9.7041356190832262e-01 0.0000000000000000e+00  1.7921086062174059e-03 9.7044073059930602e-01 0.0000000000000000e+00  2.3251656872676873e-03 9.7047463240155507e-01 0.0000000000000000e+00  2.8857803511248697e-03 9.7051981478420080e-01 0.0000000000000000e+00  3.4529207432503779e-03 9.7057550524538561e-01 0.0000000000000000e+00  3.9785893358468272e-03 9.7063613546802718e-01 0.0000000000000000e+00  4.5631956062283105e-03 9.7071380996495249e-01 0.0000000000000000e+00  5.0804550859872228e-03 9.7079159647977309e-01 0.0000000000000000e+00  5.6535890219862632e-03 9.7088780115267970e-01 0.0000000000000000e+00  6.1911842213991982e-03 9.7098769529626916e-01 0.0000000000000000e+00  6.7273230885246012e-03 9.7109672000241898e-01 0.0000000000000000e+00  7.2943109199077125e-03 9.7122234431354426e-01 0.0000000000000000e+00  7.8027988289447840e-03 9.7134414215823361e-01 0.0000000000000000e+00  8.3734815834584642e-03 9.7149125981474882e-01 0.0000000000000000e+00  8.8828124303293229e-03 9.7163199780282783e-01 0.0000000000000000e+00  9.4290915081849443e-03 9.7179298652075885e-01 0.0000000000000000e+00  9.9645788677056105e-03 9.7196104194943933e-01 0.0000000000000000e+00  1.0470824391044764e-02 9.7212940661162350e-01 0.0000000000000000e+00  1.1024416533534242e-02 9.7232426403953387e-01 0.0000000000000000e+00  1.1512728218927366e-02 9.7250563744073870e-01 0.0000000000000000e+00  1.2056845695055593e-02 9.7271843643565059e-01 0.0000000000000000e+00  1.2554419453096878e-02 9.7292310935793413e-01 0.0000000000000000e+00  1.3063279236804176e-02 9.7314260650428808e-01 0.0000000000000000e+00  1.3586052129074641e-02 9.7337907986470196e-01 0.0000000000000000e+00  1.4059924506637332e-02 9.7360327989927942e-01 0.0000000000000000e+00  1.4587263070145745e-02 9.7386407268347641e-01 0.0000000000000000e+00  1.5052143257557507e-02 9.7410410934332514e-01 0.0000000000000000e+00  1.5558004228996862e-02 9.7437640357014932e-01 0.0000000000000000e+00  1.6038781005168857e-02 9.7464623024992525e-01 0.0000000000000000e+00  1.6503708159895745e-02 9.7491770737058780e-01 0.0000000000000000e+00  1.7000787010052167e-02 9.7521979773418621e-01 0.0000000000000000e+00  1.7439758972763477e-02 9.7549708872448582e-01 0.0000000000000000e+00  1.7928860351205032e-02 9.7581807131965692e-01 0.0000000000000000e+00  1.8366487791540192e-02 9.7611640350564211e-01 0.0000000000000000e+00  1.8823834773212218e-02 9.7643984220691793e-01 0.0000000000000000e+00  1.9278749518180725e-02 9.7677385355858803e-01 0.0000000000000000e+00  1.9697358849213056e-02 9.7709248014666217e-01 0.0000000000000000e+00  2.0156414940706253e-02 9.7745484945843686e-01 0.0000000000000000e+00  2.0557613811074203e-02 9.7778313031643638e-01 0.0000000000000000e+00  2.0997820325140512e-02 9.7815634054942258e-01 0.0000000000000000e+00  2.1403551583248696e-02 9.7851294892057206e-01 0.0000000000000000e+00  2.1805671061038288e-02 9.7887892851111225e-01 0.0000000000000000e+00  2.2223190896428640e-02 9.7927282472658839e-01 0.0000000000000000e+00  2.2593699283796731e-02 9.7963485741916423e-01 0.0000000000000000e+00  2.3003671450238027e-02 9.8004990995319197e-01 0.0000000000000000e+00  2.3363615987167356e-02 9.8042754711957614e-01 0.0000000000000000e+00  2.3746009533387950e-02 9.8084311406140257e-01 0.0000000000000000e+00  2.4112934085491849e-02 9.8125665720309230e-01 0.0000000000000000e+00  2.4456704239371529e-02 9.8165809537451909e-01 0.0000000000000000e+00  2.4825329553442559e-02 9.8210461364022883e-01 0.0000000000000000e+00  2.5145552966051043e-02 9.8250692008955864e-01 0.0000000000000000e+00  2.5497061561840999e-02 9.8296510332172637e-01 0.0000000000000000e+00  2.5811461619271218e-02 9.8339070650645011e-01 0.0000000000000000e+00  2.6129578145385701e-02 9.8383772017403015e-01 0.0000000000000000e+00  2.6448151288702322e-02 9.8430324288085513e-01 0.0000000000000000e+00  2.6732789482921043e-02 9.8473558468583167e-01 0.0000000000000000e+00  2.7042655845051358e-02 9.8522544187300520e-01 0.0000000000000000e+00  2.7309799194616961e-02 9.8566529262618041e-01 0.0000000000000000e+00  2.7595510857041986e-02 9.8615545477519029e-01 0.0000000000000000e+00  2.7859020546387669e-02 9.8662743342623238e-01 0.0000000000000000e+00  2.8109961247625614e-02 9.8709655498720905e-01 0.0000000000000000e+00  2.8370033709137914e-02 9.8760525021404566e-01 0.0000000000000000e+00  2.8594362239125280e-02 9.8806455996076581e-01 0.0000000000000000e+00  2.8837624385846299e-02 9.8858681420978967e-01 0.0000000000000000e+00  2.9048130690584428e-02 9.8906163845161510e-01 0.0000000000000000e+00  2.9263086356011839e-02 9.8957144947719600e-01 0.0000000000000000e+00  2.9468144344820521e-02 9.9008467057210703e-01 0.0000000000000000e+00  2.9651749536155497e-02 9.9056987563605947e-01 0.0000000000000000e+00  2.9844958193453303e-02 9.9111096897570750e-01 0.0000000000000000e+00  3.0007217165194468e-02 9.9159367799135467e-01 0.0000000000000000e+00  3.0178379601267923e-02 9.9213614862218735e-01 0.0000000000000000e+00  3.0327839115308324e-02 9.9264326724020568e-01 0.0000000000000000e+00  3.0470160045520670e-02 9.9316138320080638e-01 0.0000000000000000e+00  3.0608791955279709e-02 9.9370682343392491e-01 0.0000000000000000e+00  3.0725205703571519e-02 9.9420368994551789e-01 0.0000000000000000e+00  3.0845532549646056e-02 9.9476509946551916e-01 0.0000000000000000e+00  3.0943270606453910e-02 9.9526774982818533e-01 0.0000000000000000e+00  3.1039448625503792e-02 9.9581747758076411e-01 0.0000000000000000e+00  3.1122413031977131e-02 9.9635268620190376e-01 0.0000000000000000e+00  3.1192736239397362e-02 9.9687060697027330e-01 0.0000000000000000e+00  3.1258409591191201e-02 9.9743624711261725e-01 0.0000000000000000e+00  3.1307220372614776e-02 9.9794070773424892e-01 0.0000000000000000e+00  3.1351261588922347e-02 9.9850950867439403e-01 0.0000000000000000e+00  3.1381302839096237e-02 9.9902848658021315e-01 0.0000000000000000e+00  3.1402418894404413e-02 9.9957249641505119e-01 0.0000000000000000e+00  3.1413024791167088e-02 1.0001271770494808e+00 0.0000000000000000e+00  3.1413011080379798e-02 1.0006401623836310e+00 0.0000000000000000e+00  3.1401822623380676e-02 1.0012130726838351e+00 0.0000000000000000e+00  3.1382009131776828e-02 1.0017211593298576e+00 0.0000000000000000e+00  3.1349165473167670e-02 1.0022840800902657e+00 0.0000000000000000e+00  3.1307623296707332e-02 1.0028153293340671e+00 0.0000000000000000e+00  3.1256113812967681e-02 1.0033435103271806e+00 0.0000000000000000e+00  3.1190072331133925e-02 1.0039053670279052e+00 0.0000000000000000e+00  3.1120911012308215e-02 1.0044092651598380e+00 0.0000000000000000e+00  3.1031788200225986e-02 1.0049761004225219e+00 0.0000000000000000e+00  3.0941711982161613e-02 1.0054836821350066e+00 0.0000000000000000e+00  3.0834302358634127e-02 1.0060276092578837e+00 0.0000000000000000e+00  3.0717298965759737e-02 1.0065636756720737e+00 0.0000000000000000e+00  3.0596539235325102e-02 1.0070698429343099e+00 0.0000000000000000e+00  3.0452332841420834e-02 1.0076254227831707e+00 0.0000000000000000e+00  3.0314653291877124e-02 1.0081161897193935e+00 0.0000000000000000e+00  3.0149475616223876e-02 1.0086637003035839e+00 0.0000000000000000e+00  2.9986941230563311e-02 1.0091662189352233e+00 0.0000000000000000e+00  2.9809839409333409e-02 1.0096797612666049e+00 0.0000000000000000e+00  2.9615255947222658e-02 1.0102095427596280e+00 0.0000000000000000e+00  2.9428177478672664e-02 1.0106899264495972e+00 0.0000000000000000e+00  2.9207281127448748e-02 1.0112258155309737e+00 0.0000000000000000e+00  2.9001180483811201e-02 1.0116992594188345e+00 0.0000000000000000e+00  2.8764783277029787e-02 1.0122148305962682e+00 0.0000000000000000e+00  2.8527419613200052e-02 1.0127065398996917e+00 0.0000000000000000e+00  2.8286520285621921e-02 1.0131820718303253e+00 0.0000000000000000e+00  2.8015428874533985e-02 1.0136920473950499e+00 0.0000000000000000e+00  2.7764407775383856e-02 1.0141430144154859e+00 0.0000000000000000e+00  2.7471302704965561e-02 1.0146463860828761e+00 0.0000000000000000e+00  2.7196440226071823e-02 1.0150979177139492e+00 0.0000000000000000e+00  2.6896479566831617e-02 1.0155701591691120e+00 0.0000000000000000e+00  2.6584021683338333e-02 1.0160413575132772e+00 0.0000000000000000e+00  2.6284181052766198e-02 1.0164753685067749e+00 0.0000000000000000e+00  2.5940739268371378e-02 1.0169524737348301e+00 0.0000000000000000e+00  2.5627647211691491e-02 1.0173702665462148e+00 0.0000000000000000e+00  2.5269720270413513e-02 1.0178294226039946e+00 0.0000000000000000e+00  2.4925468257953807e-02 1.0182538152834171e+00 0.0000000000000000e+00  2.4570633197479600e-02 1.0186748670428094e+00 0.0000000000000000e+00  2.4186401342285144e-02 1.0191133296304702e+00 0.0000000000000000e+00  2.3831652732997709e-02 1.0195030870561159e+00 0.0000000000000000e+00  2.3422976571720613e-02 1.0199353531077329e+00 0.0000000000000000e+00  2.3049314979566082e-02 1.0203158500183442e+00 0.0000000000000000e+00  2.2636607881875690e-02 1.0207207453052189e+00 0.0000000000000000e+00  2.2223784072804863e-02 1.0211105517277965e+00 0.0000000000000000e+00  2.1821791752519252e-02 1.0214763378483307e+00 0.0000000000000000e+00  2.1372650757006680e-02 1.0218698002856235e+00 0.0000000000000000e+00  2.0966517563394273e-02 1.0222124627123139e+00 0.0000000000000000e+00  2.0502430039467671e-02 1.0225895438616399e+00 0.0000000000000000e+00  2.0069504653586114e-02 1.0229280456380176e+00 0.0000000000000000e+00  1.9613812843948749e-02 1.0232711798216734e+00 0.0000000000000000e+00  1.9137151865739676e-02 1.0236162951653318e+00 0.0000000000000000e+00  1.8693448137875476e-02 1.0239254088184524e+00 0.0000000000000000e+00  1.8189027573153313e-02 1.0242632092476798e+00 0.0000000000000000e+00  1.7734645340811258e-02 1.0245555944903382e+00 0.0000000000000000e+00  1.7227311953355227e-02 1.0248692399830543e+00 0.0000000000000000e+00  1.6736719886158359e-02 1.0251601599525593e+00 0.0000000000000000e+00  1.6248704203693027e-02 1.0254379123587658e+00 0.0000000000000000e+00  1.5717438989524619e-02 1.0257275394638881e+00 0.0000000000000000e+00  1.5236854868731197e-02 1.0259784722391341e+00 0.0000000000000000e+00  1.4689188466576745e-02 1.0262520284289198e+00 0.0000000000000000e+00  1.4189536884851561e-02 1.0264904217502449e+00 0.0000000000000000e+00  1.3652993484273875e-02 1.0267348908023410e+00 0.0000000000000000e+00  1.3110306989010662e-02 1.0269703522920552e+00 0.0000000000000000e+00  1.2597288255056807e-02 1.0271823133638915e+00 0.0000000000000000e+00  1.2023330546390845e-02 1.0274075226352264e+00 0.0000000000000000e+00  1.1510266948289924e-02 1.0275984265835667e+00 0.0000000000000000e+00  1.0933267977322754e-02 1.0278016518893989e+00 0.0000000000000000e+00  1.0391451057718677e-02 1.0279816681928537e+00 0.0000000000000000e+00  9.8388865368387295e-03 1.0281546868603153e+00 0.0000000000000000e+00  9.2543359950724834e-03 1.0283263297533900e+00 0.0000000000000000e+00  8.7219400655171812e-03 1.0284726505947617e+00 0.0000000000000000e+00  8.1191195027351185e-03 1.0286270083180873e+00 0.0000000000000000e+00  7.5778125531033120e-03 1.0287555319350057e+00 0.0000000000000000e+00  6.9866673287183895e-03 1.0288851512575587e+00 0.0000000000000000e+00  6.4077896011017297e-03 1.0290013651065273e+00 0.0000000000000000e+00  5.8492974899764681e-03 1.0291035621428803e+00 0.0000000000000000e+00  5.2366487190335089e-03 1.0292045866731365e+00 0.0000000000000000e+00  4.6900115822417670e-03 1.0292850381347554e+00 0.0000000000000000e+00  4.0734521628995480e-03 1.0293649172032759e+00 0.0000000000000000e+00  3.5082539518874814e-03 1.0294281065555178e+00 0.0000000000000000e+00  2.9182340123589797e-03 1.0294839017974755e+00 0.0000000000000000e+00  2.3125204775082757e-03 1.0295304386561130e+00 0.0000000000000000e+00  1.7540314375640834e-03 1.0295637499679664e+00 0.0000000000000000e+00  1.1283759337396288e-03 1.0295901729646750e+00 0.0000000000000000e+00  5.7240996818722664e-04 1.0296040176021715e+00 0.0000000000000000e+00  -4.2167538265496422e-05 1.0296087872572017e+00 0.0000000000000000e+00  -6.2632692805143363e-04 1.0296030715174769e+00 0.0000000000000000e+00  -1.2033508417039762e-03 1.0295876125995362e+00 0.0000000000000000e+00  -1.8213527621860266e-03 1.0295602213957524e+00 0.0000000000000000e+00  -2.3746186472402278e-03 1.0295261666416149e+00 0.0000000000000000e+00  -2.9975884943038945e-03 1.0294769999213738e+00 0.0000000000000000e+00  -3.5578826109445216e-03 1.0294229406871365e+00 0.0000000000000000e+00  -4.1549195075238094e-03 1.0293550195268701e+00 0.0000000000000000e+00  -4.7487056088690244e-03 1.0292768346374159e+00 0.0000000000000000e+00  -5.3057866608945351e-03 1.0291937621636429e+00 0.0000000000000000e+00  -5.9203792061734992e-03 1.0290910920307075e+00 0.0000000000000000e+00  -6.4634778147052646e-03 1.0289906427304449e+00 0.0000000000000000e+00  -7.0681897873893333e-03 1.0288679367132705e+00 0.0000000000000000e+00  -7.6274140193899947e-03 1.0287441484048434e+00 0.0000000000000000e+00  -8.1939934165925175e-03 1.0286084834461839e+00 0.0000000000000000e+00  -8.7839586663576788e-03 1.0284560915139715e+00 0.0000000000000000e+00  -9.3164627493564720e-03 1.0283086371842394e+00 0.0000000000000000e+00  -9.9120552644064285e-03 1.0281323827697886e+00 0.0000000000000000e+00  -1.0439993774449652e-02 1.0279659616659196e+00 0.0000000000000000e+00  -1.1011742947976107e-02 1.0277747165714761e+00 0.0000000000000000e+00  -1.1562652357757211e-02 1.0275793792208445e+00 0.0000000000000000e+00  -1.2090455249836055e-02 1.0273818251004672e+00 0.0000000000000000e+00  -1.2660963564412517e-02 1.0271565582781299e+00 0.0000000000000000e+00  -1.3164563499790952e-02 1.0269473368271784e+00 0.0000000000000000e+00  -1.3726399953803032e-02 1.0267021387383981e+00 0.0000000000000000e+00  -1.4233855365984411e-02 1.0264697019049349e+00 0.0000000000000000e+00  -1.4759763359266041e-02 1.0262175047334177e+00 0.0000000000000000e+00  -1.5290659599314799e-02 1.0259508915111681e+00 0.0000000000000000e+00  -1.5775993349195258e-02 1.0256962585415006e+00 0.0000000000000000e+00  -1.6312220722569038e-02 1.0254024071706414e+00 0.0000000000000000e+00  -1.6782595565844625e-02 1.0251334631646920e+00 0.0000000000000000e+00  -1.7297436983312021e-02 1.0248266749339441e+00 0.0000000000000000e+00  -1.7778450575596842e-02 1.0245278843984653e+00 0.0000000000000000e+00  -1.8250221624392448e-02 1.0242229803988265e+00 0.0000000000000000e+00  -1.8746884545782942e-02 1.0238887833330976e+00 0.0000000000000000e+00  -1.9186633253139910e-02 1.0235811027252759e+00 0.0000000000000000e+00  -1.9675263361190135e-02 1.0232256730401630e+00 0.0000000000000000e+00  -2.0107796755633837e-02 1.0228986063035017e+00 0.0000000000000000e+00  -2.0564551398635278e-02 1.0225399447214747e+00 0.0000000000000000e+00  -2.1009950587557176e-02 1.0221763933372248e+00 0.0000000000000000e+00  -2.1424037400685943e-02 1.0218255766164452e+00 0.0000000000000000e+00  -2.1873011275425687e-02 1.0214304623473263e+00 0.0000000000000000e+00  -2.2264083683624550e-02 1.0210731456625950e+00 0.0000000000000000e+00  -2.2693859336919253e-02 1.0206655058756480e+00 0.0000000000000000e+00  -2.3083442355731600e-02 1.0202816572786713e+00 0.0000000000000000e+00  -2.3474503703986183e-02 1.0198817975937262e+00 0.0000000000000000e+00  -2.3872897139428164e-02 1.0194584819815549e+00 0.0000000000000000e+00  -2.4227870920435730e-02 1.0190668356970172e+00 0.0000000000000000e+00  -2.4617772330393833e-02 1.0186198434612457e+00 0.0000000000000000e+00  -2.4956808828413665e-02 1.0182158422145859e+00 0.0000000000000000e+00  -2.5319030623203360e-02 1.0177672796687915e+00 0.0000000000000000e+00  -2.5659433910816709e-02 1.0173285573845265e+00 0.0000000000000000e+00  -2.5981615452715122e-02 1.0168967529336397e+00 0.0000000000000000e+00  -2.6321440477374506e-02 1.0164223570159179e+00 0.0000000000000000e+00  -2.6615843552491365e-02 1.0159942809449836e+00 0.0000000000000000e+00  -2.6937749795945820e-02 1.0155063887957416e+00 0.0000000000000000e+00  -2.7220951228208175e-02 1.0150584042243733e+00 0.0000000000000000e+00  -2.7509848013102346e-02 1.0145815288111941e+00 0.0000000000000000e+00  -2.7792460583989775e-02 1.0140935606506234e+00 0.0000000000000000e+00  -2.8045951300620868e-02 1.0136358711743449e+00 0.0000000000000000e+00  -2.8318060599577904e-02 1.0131210811734630e+00 0.0000000000000000e+00  -2.8550159264771904e-02 1.0126604808381510e+00 0.0000000000000000e+00  -2.8797958640298906e-02 1.0121441119022523e+00 0.0000000000000000e+00  -2.9020962405875129e-02 1.0116548376317769e+00 0.0000000000000000e+00  -2.9234781694967016e-02 1.0111607928220432e+00 0.0000000000000000e+00  -2.9450815535373397e-02 1.0106331682576326e+00 0.0000000000000000e+00  -2.9636036108798336e-02 1.0101545225846342e+00 0.0000000000000000e+00  -2.9834031153277291e-02 1.0096115007759205e+00 0.0000000000000000e+00  -3.0001671364588429e-02 1.0091220132959140e+00 0.0000000000000000e+00  -3.0172281427794649e-02 1.0085904944669202e+00 0.0000000000000000e+00  -3.0329464427309435e-02 1.0080650241221609e+00 0.0000000000000000e+00  -3.0469455882913093e-02 1.0075618598633953e+00 0.0000000000000000e+00  -3.0612203872613538e-02 1.0070064967346999e+00 0.0000000000000000e+00  -3.0729227147931599e-02 1.0065112811928489e+00 0.0000000000000000e+00  -3.0849680846279787e-02 1.0059531297649211e+00 0.0000000000000000e+00  -3.0950150275466468e-02 1.0054383733160133e+00 0.0000000000000000e+00  -3.1043696103370700e-02 1.0049046133507602e+00 0.0000000000000000e+00  -3.1129240461838330e-02 1.0043520660226273e+00 0.0000000000000000e+00  -3.1197760540490026e-02 1.0038447393286314e+00 0.0000000000000000e+00  -3.1263419774319477e-02 1.0032745428246987e+00 0.0000000000000000e+00  -3.1311840746232250e-02 1.0027668475562166e+00 0.0000000000000000e+00  -3.1354337265811320e-02 1.0022070641969143e+00 0.0000000000000000e+00  -3.1384369772145967e-02 1.0016712035262805e+00 0.0000000000000000e+00  -3.1403769446273835e-02 1.0011449835490873e+00 0.0000000000000000e+00  -3.1413514915137136e-02 1.0005778905308174e+00 0.0000000000000000e+00  -3.1412448514328360e-02 1.0000707724469342e+00 0.0000000000000000e+00  -3.1400188694025083e-02 9.9949909325262742e-01 0.0000000000000000e+00  -3.1379053553722197e-02 9.9898296682773036e-01 0.0000000000000000e+00  -3.1346145542778599e-02 9.9843489473804614e-01 0.0000000000000000e+00  -3.1302376361965409e-02 9.9788607435948140e-01 0.0000000000000000e+00  -3.1251622185890171e-02 9.9737284170973972e-01 0.0000000000000000e+00  -3.1184293567912604e-02 9.9680443456969980e-01 0.0000000000000000e+00  -3.1114942251521577e-02 9.9630157425002530e-01 0.0000000000000000e+00  -3.1026848056980260e-02 9.9574167416131620e-01 0.0000000000000000e+00  -3.0934647101496803e-02 9.9522137370274399e-01 0.0000000000000000e+00  -3.0831311542102242e-02 9.9469576483530320e-01 0.0000000000000000e+00  -3.0712062927963989e-02 9.9414553401514616e-01 0.0000000000000000e+00  -3.0594676790635711e-02 9.9364916817589299e-01 0.0000000000000000e+00  -3.0451880105719913e-02 9.9309265854193884e-01 0.0000000000000000e+00  -3.0314922940627275e-02 9.9259805035717286e-01 0.0000000000000000e+00  -3.0155860616035802e-02 9.9206260157545800e-01 0.0000000000000000e+00  -2.9990999018876453e-02 9.9154413901299054e-01 0.0000000000000000e+00  -2.9823081484236215e-02 9.9104796840032838e-01 0.0000000000000000e+00  -2.9629448863051338e-02 9.9050952598910913e-01 0.0000000000000000e+00  -2.9448236800838773e-02 9.9003358666423402e-01 0.0000000000000000e+00  -2.9234329560240521e-02 9.8950166217189262e-01 0.0000000000000000e+00  -2.9029855532023630e-02 9.8901950321167287e-01 0.0000000000000000e+00  -2.8807086740987531e-02 9.88519