<?xml version="1.0"?>
<VTKFile type="UnstructuredGrid"  version="0.1"  >
<UnstructuredGrid>
<Piece  NumberOfPoints="4265" NumberOfCells="6746">
<Points>
<DataArray  type="Float64"  NumberOfComponents="3"  format="ascii">0 0.01 0  10 0.01 0  0 1.030624186909793 0  10 1.030624186909793 0  0.007129524987038337 0.009997491741717768 0  0.01258064459049757 0.00999219056738478 0  0.01872173241756402 0.009982708334120727 0  0.02429919625640796 0.009970876572043954 0  0.03017238705920286 0.009955108531615313 0  0.03612352734296466 0.0099356743715591 0  0.04164979236492252 0.009914517792428084 0  0.04780928449023854 0.009887415768096998 0  0.05327287671237849 0.009860276931383746 0  0.0593436395885565 0.009826715421083503 0  0.06505608699933001 0.009791870631895848 0  0.07077243060783153 0.009753845329312128 0  0.07684085351634186 0.009710036052663748 0  0.08230528612367993 0.009667566921662384 0  0.08846525752759338 0.009616276826848907 0  0.09398926586603956 0.0095672187064786 0  0.09994377871281757 0.009511110804477986 0  0.10581288515308 0.009452550633355501 0  0.1113930001121819 0.009393893683773193 0  0.1175326299024069 0.009326020378011352 0  0.122983161250664 0.009262856809916281 0  0.1290978349347763 0.009188765415777931 0  0.1347300222736412 0.00911751981665075 0  0.1405327472005438 0.009041131768776852 0  0.1465421455697866 0.008958856277281909 0  0.1520341809431761 0.008880870879718691 0  0.1581991754706344 0.00879018143976357 0  0.1636834803794234 0.008706732874359017 0  0.1697073563005918 0.008612096527554045 0  0.1754901396361989 0.008518345936558386 0  0.1811391035120075 0.008424050210098115 0  0.1872444279222087 0.00831915423323064 0  0.1926961446341008 0.008222899998379215 0  0.198841090009393 0.008111516418624823 0  0.2044064770158165 0.008008028244452866 0  0.2102948627703611 0.007895869216798803 0  0.2162299794791283 0.007780085801116003 0  0.2217647046821167 0.007669675498109103 0  0.2279204403470532 0.007544154739747676 0  0.2333791472114919 0.007430485124751003 0  0.2394590817234977 0.0073013084386626 0  0.245152498789355 0.007177928079207972 0  0.2508861115607116 0.007051356111670669 0  0.2569419868439766 0.006915186417023598 0  0.2624099649457279 0.006790084113692359 0  0.2685711825796066 0.006646722567663751 0  0.274083748205357 0.006516341894728842 0  0.2800541704182985 0.00637292855786236 0  0.2859022845836161 0.006230279166502627 0  0.291495955429921 0.006091868246150131 0  0.2976275706217687 0.005937986548763313 0  0.3030757324287757 0.005799406374294222 0  0.3091980118239236 0.005641654227187252 0  0.3148109405089491 0.005495191514879527 0  0.3206341933715942 0.005341435282378838 0  0.3266248575896781 0.005181393525330103 0  0.3321252080346692 0.005032833254881577 0  0.3382880718234609 0.004864596209960478 0  0.3437628463580178 0.004713611578807419 0  0.3498021006600692 0.004545443593512952 0  0.3555594631656461 0.004383601001460968 0  0.3612291099056053 0.004222822711549606 0  0.3673210805066339 0.004048576418709386 0  0.3727746135437823 0.003891330909934085 0  0.3789246700786391 0.003712634483246944 0  0.3844721023230384 0.00355025746928806 0  0.3903845048135511 0.003376011435332509 0  0.3962935688476314 0.003200699755406988 0  0.4018430601204535 0.00303505085978487 0  0.4079921977692303 0.002850427660455144 0  0.4134449905916002 0.002685819499171436 0  0.4195385366679084 0.002500937932218923 0  0.425204482428441 0.002328206591247292 0  0.4309651825948974 0.00215183074136113 0  0.4370014133195289 0.001966263547608745 0  0.4424769325836848 0.00179732019881714 0  0.4486395183564056 0.001606544730410899 0  0.4541373275735043 0.001435838569361521 0  0.4601308451156257 0.001249254088784412 0  0.4659488863550298 0.001067707976620331 0  0.471564807260988 0.0008921302908496037 0  0.4776843759254726 0.0007004920228137959 0  0.4831317484445766 0.0005296836585198918 0  0.4892643513384632 0.0003372062279158936 0  0.4948528283485032 0.000161696161435303 0  0.5007056813361916 -2.216943068070812e-05 0  0.5066699093509902 -0.000209526046556915 0  0.5121845298566023 -0.0003826949545447442 0  0.5183439831944545 -0.0005759742926309219 0  0.5238088617282698 -0.0007472800272428554 0  0.5298681543527348 -0.0009369594486414562 0  0.5355929349139432 -0.001115856450691032 0  0.5412927239341832 -0.001293613669039852 0  0.5473668732672543 -0.001482588207084091 0  0.5528259073001393 -0.001651967505962102 0  0.5589819336317072 -0.001842386787779294 0  0.5645100189486582 -0.002012797049529044 0  0.5704524332663232 -0.002195301346534757 0  0.5763298911552834 -0.002375058665203144 0  0.5819006708717119 -0.002544689651648297 0  0.5880413281562127 -0.002730768313747055 0  0.5934904284812221 -0.002895042191696308 0  0.5995995320960693 -0.003078202338538874 0  0.605236779888003 -0.003246210954182579 0  0.6110299855290301 -0.003417806240976177 0  0.6170432999212266 -0.00359472323302265 0  0.6225307972792151 -0.00375505261922207 0  0.6286944373476531 -0.003933803567825084 0  0.6341794289295242 -0.004091634709336539 0  0.6401977648984302 -0.004263413669385436 0  0.6459846030577213 -0.004427148756161272 0  0.6516277670629291 -0.004585409549508515 0  0.6577342305863492 -0.004755038487876419 0  0.6631843111407589 -0.004904958327357115 0  0.6693271588517591 -0.005072208653571043 0  0.6748942591145469 -0.005222152905474348 0  0.6807781354428797 -0.005378892074409919 0  0.6867158102497221 -0.005535201343768038 0  0.6922478556369909 -0.005679100421160843 0  0.6984036264198542 -0.005837205328254034 0  0.7038624132928571 -0.005975584427524931 0  0.7099402809449575 -0.006127588021236129 0  0.7156361945945205 -0.006268012368771779 0  0.7213667017809595 -0.006407263887957157 0  0.7274241898103784 -0.006552202568912044 0  0.7328913375361901 -0.006680980644346233 0  0.7390522654079078 -0.006823736587757829 0  0.7445663161830813 -0.006949337256267011 0  0.7505345306161221 -0.007082931996795786 0  0.7563856967966242 -0.007211490056377221 0  0.7619775509571868 -0.007332073958440476 0  0.7681106054434813 -0.007461725199742056 0  0.7735594228940573 -0.007574589702563127 0  0.7796809699364847 -0.007698739982391196 0  0.7852974086111042 -0.007810142587226769 0  0.7911178568436495 -0.007923025648348906 0  0.797112403703894 -0.008036515862006795 0  0.8026119630288198 -0.008138129173272899 0  0.8087760180262171 -0.008249131188213875 0  0.814253500572072 -0.008345174877796967 0  0.8202905515677629 -0.008448166667805387 0  0.8260544286221699 -0.008543663134562481 0  0.831720415905675 -0.008634807324656511 0  0.8378167080097026 -0.008729817306667463 0  0.8432709709919499 -0.008812108559864256 0  0.8494209576248264 -0.008901791974276371 0  0.8549745826348545 -0.008979924427376591 0  0.8608814329347291 -0.009060026011188804 0  0.8667998142885592 -0.009137155111096256 0  0.8723460990452367 -0.009206568509458774 0  0.8784989383774584 -0.009280301817794542 0  0.8839552890388401 -0.009342788637451834 0  0.8900456692707091 -0.009409293585850673 0  0.8957233874467343 -0.009468190513990782 0  0.9014754209053449 -0.009524786393944277 0  0.9075213579987256 -0.009580921173179099 0  0.9129954731058688 -0.009628765913494807 0  0.9191593188847452 -0.009679229788646495 0  0.9246655330424429 -0.009721240864333262 0  0.9306503084472221 -0.009763603884533442 0  0.9364847200361547 -0.009801580348484516 0  0.9420914259676206 -0.009834972127394636 0  0.948219177636862 -0.009867976960504428 0  0.9536688877131657 -0.009894257783109666 0  0.9597979104438458 -0.009920349306153329 0  0.9654020314719589 -0.009940987600901847 0  0.9712398170272581 -0.009959209624459757 0  0.9772219132298864 -0.009974407121723252 0  0.9827297975109929 -0.009985285083248089 0  0.9888934840407251 -0.009993913310034224 0  0.9943667421923366 -0.009998434045983932 0  1.000414962337846 -0.009999991502249178 0  1.00616395254491 -0.009998125110441144 0  1.011844857354635 -0.009993077234903055 0  1.017933801412069 -0.009984132829796667 0  1.023390946643176 -0.00997301205183276 0  1.029544679732296 -0.009956955598792184 0  1.035089558108845 -0.009939300412459717 0  1.041010936359372 -0.009917116481575694 0  1.04691554237944 -0.00989157814857561 0  1.052471258615448 -0.009864440751261633 0  1.05862104751389 -0.009830897850136421 0  1.064075481579663 -0.009798076706746352 0  1.070173358231585 -0.009757978136698224 0  1.075837941143087 -0.00971752009646258 0  1.081604377355612 -0.009673173917302162 0  1.087640686528322 -0.009623351755525641 0  1.093119387704205 -0.009575135453199036 0  1.099284093826516 -0.009517491101966447 0  1.104783734376909 -0.009463052176492596 0  1.110779897618174 -0.009400480030121557 0  1.116599992234411 -0.00933655469875222 0  1.122217899723542 -0.009271889359757672 0  1.128339818747432 -0.009198135031144493 0  1.133789446190431 -0.00912961705214143 0  1.139923317158062 -0.009049295973540348 0  1.145515844317945 -0.008973134373133167 0  1.151367773813766 -0.008890475161473248 0  1.157336906671575 -0.008803064948780913 0  1.16285160438384 -0.008719557366803981 0  1.16901331600552 -0.008623157866544266 0  1.174481522907442 -0.00853490108265173 0  1.180539122189597 -0.008434191931863186 0  1.186271617394136 -0.008336073959344166 0  1.191966996821913 -0.008235914041393521 0  1.198046448076202 -0.008126091334838595 0  1.203505695906331 -0.008024945109277802 0  1.209661806077474 -0.007908057515838151 0  1.21519584913737 -0.007800455577732041 0  1.221132109188887 -0.00768241304184519 0  1.227019087412133 -0.007562711583992629 0  1.232585135446325 -0.007447155722966398 0  1.238729389023077 -0.007316953404904543 0  1.244180486899644 -0.007199156086382225 0  1.250286093435722 -0.007064709646262071 0  1.255932842016573 -0.006938052500145445 0  1.261716857103797 -0.006806053534187844 0  1.26773845151126 -0.006666245775332091 0  1.273222687278595 -0.006536836953056475 0  1.279386853652711 -0.00638906998029936 0  1.284876650734994 -0.006255450389977176 0  1.290887326898431 -0.00610702037198264 0  1.296685536664392 -0.00596177282270944 0  1.30231949087952 -0.005818744638503708 0  1.308431215520824
[...]
<PointData  Vectors="Velocity"> 
<DataArray  type="Float64"  Name="Velocity"  NumberOfComponents="3" format="ascii">4.2179442784023089e-11 9.7039118677769809e-01 0.0000000000000000e+00  4.2179442784023089e-11 9.7039118677769809e-01 0.0000000000000000e+00  3.0498513060527397e-05 -4.0225104463803250e-02 0.0000000000000000e+00  3.0498513060527397e-05 -4.0225104463803250e-02 0.0000000000000000e+00  6.8276941371616772e-04 9.7039837325158129e-01 0.0000000000000000e+00  1.2046099919251613e-03 9.7041356190764927e-01 0.0000000000000000e+00  1.7921088419616731e-03 9.7044073059992808e-01 0.0000000000000000e+00  2.3251659772624204e-03 9.7047463240320253e-01 0.0000000000000000e+00  2.8857804215949869e-03 9.7051981479186822e-01 0.0000000000000000e+00  3.4529207923689269e-03 9.7057550524380576e-01 0.0000000000000000e+00  3.9785890793746165e-03 9.7063613546624472e-01 0.0000000000000000e+00  4.5631958180033230e-03 9.7071380995936540e-01 0.0000000000000000e+00  5.0804551067116207e-03 9.7079159647770463e-01 0.0000000000000000e+00  5.6535892457399498e-03 9.7088780114245965e-01 0.0000000000000000e+00  6.1911841244750836e-03 9.7098769529668372e-01 0.0000000000000000e+00  6.7273230864172305e-03 9.7109671998235991e-01 0.0000000000000000e+00  7.2943107155556495e-03 9.7122234431581400e-01 0.0000000000000000e+00  7.8027986786725961e-03 9.7134414212923492e-01 0.0000000000000000e+00  8.3734814957172436e-03 9.7149125981515472e-01 0.0000000000000000e+00  8.8828125431019145e-03 9.7163199780434095e-01 0.0000000000000000e+00  9.4290913583870394e-03 9.7179298653190072e-01 0.0000000000000000e+00  9.9645790213030629e-03 9.7196104194592470e-01 0.0000000000000000e+00  1.0470824168846135e-02 9.7212940663946035e-01 0.0000000000000000e+00  1.1024416396938881e-02 9.7232426407569439e-01 0.0000000000000000e+00  1.1512728385747477e-02 9.7250563742620832e-01 0.0000000000000000e+00  1.2056846718129616e-02 9.7271843644126699e-01 0.0000000000000000e+00  1.2554419441041999e-02 9.7292310935019977e-01 0.0000000000000000e+00  1.3063278477654492e-02 9.7314260650720863e-01 0.0000000000000000e+00  1.3586052104384044e-02 9.7337907986830685e-01 0.0000000000000000e+00  1.4059923967108251e-02 9.7360327990287909e-01 0.0000000000000000e+00  1.4587261899944961e-02 9.7386407270128450e-01 0.0000000000000000e+00  1.5052141712968375e-02 9.7410410937559422e-01 0.0000000000000000e+00  1.5558003523484271e-02 9.7437640358493316e-01 0.0000000000000000e+00  1.6038779109562466e-02 9.7464623029403730e-01 0.0000000000000000e+00  1.6503700344974066e-02 9.7491770755304341e-01 0.0000000000000000e+00  1.7000785338345967e-02 9.7521979776322876e-01 0.0000000000000000e+00  1.7439758851514164e-02 9.7549708873298413e-01 0.0000000000000000e+00  1.7928855844106802e-02 9.7581807143171839e-01 0.0000000000000000e+00  1.8366488126383598e-02 9.7611640350488904e-01 0.0000000000000000e+00  1.8823828628034927e-02 9.7643984236408443e-01 0.0000000000000000e+00  1.9278748824669921e-02 9.7677385355092072e-01 0.0000000000000000e+00  1.9697358527523016e-02 9.7709248014564665e-01 0.0000000000000000e+00  2.0156414185085389e-02 9.7745484946678907e-01 0.0000000000000000e+00  2.0557612537222093e-02 9.7778313034026487e-01 0.0000000000000000e+00  2.0997815196477143e-02 9.7815634066977863e-01 0.0000000000000000e+00  2.1403551784907476e-02 9.7851294890241391e-01 0.0000000000000000e+00  2.1805665789468225e-02 9.7887892865393566e-01 0.0000000000000000e+00  2.2223189589503631e-02 9.7927282476443456e-01 0.0000000000000000e+00  2.2593696780322328e-02 9.7963485749373547e-01 0.0000000000000000e+00  2.3003669885174882e-02 9.8004990999893138e-01 0.0000000000000000e+00  2.3363614533607042e-02 9.8042754717129865e-01 0.0000000000000000e+00  2.3746009501512701e-02 9.8084311406382130e-01 0.0000000000000000e+00  2.4112932333977186e-02 9.8125665726362354e-01 0.0000000000000000e+00  2.4456703006202091e-02 9.8165809541453886e-01 0.0000000000000000e+00  2.4825329383309270e-02 9.8210461364334212e-01 0.0000000000000000e+00  2.5145552655613652e-02 9.8250692010047935e-01 0.0000000000000000e+00  2.5497059591252702e-02 9.8296510339062149e-01 0.0000000000000000e+00  2.5811460458010863e-02 9.8339070655023186e-01 0.0000000000000000e+00  2.6129571572466870e-02 9.8383772038813200e-01 0.0000000000000000e+00  2.6448150232278582e-02 9.8430324291796478e-01 0.0000000000000000e+00  2.6732787547500518e-02 9.8473558475956391e-01 0.0000000000000000e+00  2.7042654631771024e-02 9.8522544192097183e-01 0.0000000000000000e+00  2.7309799326666551e-02 9.8566529262186553e-01 0.0000000000000000e+00  2.7595511357829412e-02 9.8615545475936706e-01 0.0000000000000000e+00  2.7859020575660139e-02 9.8662743342642989e-01 0.0000000000000000e+00  2.8109961348180879e-02 9.8709655498744775e-01 0.0000000000000000e+00  2.8370033577426724e-02 9.8760525023226109e-01 0.0000000000000000e+00  2.8594362046022084e-02 9.8806455999699883e-01 0.0000000000000000e+00  2.8837624511022838e-02 9.8858681421295858e-01 0.0000000000000000e+00  2.9048130994716995e-02 9.8906163845323292e-01 0.0000000000000000e+00  2.9263085910482788e-02 9.8957144953657139e-01 0.0000000000000000e+00  2.9468143840895016e-02 9.9008467061753935e-01 0.0000000000000000e+00  2.9651744674564919e-02 9.9056987599604429e-01 0.0000000000000000e+00  2.9844956720858001e-02 9.9111096905120921e-01 0.0000000000000000e+00  3.0007215258852325e-02 9.9159367811063703e-01 0.0000000000000000e+00  3.0178377856700335e-02 9.9213614870398681e-01 0.0000000000000000e+00  3.0327838826982801e-02 9.9264326728658470e-01 0.0000000000000000e+00  3.0470158517882359e-02 9.9316138331399972e-01 0.0000000000000000e+00  3.0608793727398682e-02 9.9370682337550342e-01 0.0000000000000000e+00  3.0725205781688466e-02 9.9420368994175534e-01 0.0000000000000000e+00  3.0845532237491716e-02 9.9476509946429470e-01 0.0000000000000000e+00  3.0943271536981259e-02 9.9526774978750854e-01 0.0000000000000000e+00  3.1039449491440781e-02 9.9581747753871064e-01 0.0000000000000000e+00  3.1122413461492363e-02 9.9635268618456985e-01 0.0000000000000000e+00  3.1192736530393249e-02 9.9687060695233476e-01 0.0000000000000000e+00  3.1258409618402837e-02 9.9743624711171996e-01 0.0000000000000000e+00  3.1307220779345238e-02 9.9794070771904930e-01 0.0000000000000000e+00  3.1351261537052900e-02 9.9850950868298594e-01 0.0000000000000000e+00  3.1381302209612175e-02 9.9902848660349886e-01 0.0000000000000000e+00  3.1402418623378177e-02 9.9957249642380486e-01 0.0000000000000000e+00  3.1413024231204109e-02 1.0001271770652480e+00 0.0000000000000000e+00  3.1413009006097302e-02 1.0006401624409758e+00 0.0000000000000000e+00  3.1401819255990254e-02 1.0012130727966204e+00 0.0000000000000000e+00  3.1382005748644651e-02 1.0017211594496109e+00 0.0000000000000000e+00  3.1349163363969042e-02 1.0022840801578659e+00 0.0000000000000000e+00  3.1307621928898972e-02 1.0028153293816306e+00 0.0000000000000000e+00  3.1256111017354364e-02 1.0033435104342734e+00 0.0000000000000000e+00  3.1190071057658541e-02 1.0039053670863824e+00 0.0000000000000000e+00  3.1120909323752555e-02 1.0044092652206347e+00 0.0000000000000000e+00  3.1031786916368338e-02 1.0049761004623148e+00 0.0000000000000000e+00  3.0941711170406273e-02 1.0054836821548394e+00 0.0000000000000000e+00  3.0834301013638214e-02 1.0060276092938554e+00 0.0000000000000000e+00  3.0717298385240496e-02 1.0065636756799250e+00 0.0000000000000000e+00  3.0596538288632798e-02 1.0070698429360752e+00 0.0000000000000000e+00  3.0452333347746791e-02 1.0076254227310095e+00 0.0000000000000000e+00  3.0314653573257962e-02 1.0081161896918525e+00 0.0000000000000000e+00  3.0149475246872334e-02 1.0086637003006516e+00 0.0000000000000000e+00  2.9986942056974893e-02 1.0091662188813808e+00 0.0000000000000000e+00  2.9809838040901298e-02 1.0096797613210005e+00 0.0000000000000000e+00  2.9615255195102202e-02 1.0102095427860291e+00 0.0000000000000000e+00  2.9428175511831686e-02 1.0106899265267839e+00 0.0000000000000000e+00  2.9207280325712705e-02 1.0112258155530398e+00 0.0000000000000000e+00  2.9001180569015256e-02 1.0116992594117764e+00 0.0000000000000000e+00  2.8764783478362331e-02 1.0122148305900016e+00 0.0000000000000000e+00  2.8527419958353735e-02 1.0127065398921777e+00 0.0000000000000000e+00  2.8286522155837865e-02 1.0131820717834075e+00 0.0000000000000000e+00  2.8015427559630632e-02 1.0136920474468225e+00 0.0000000000000000e+00  2.7764406843602773e-02 1.0141430144382420e+00 0.0000000000000000e+00  2.7471303877697865e-02 1.0146463860367094e+00 0.0000000000000000e+00  2.7196445621491698e-02 1.0150979175077468e+00 0.0000000000000000e+00  2.6896489429333932e-02 1.0155701587762953e+00 0.0000000000000000e+00  2.6584022161621448e-02 1.0160413574850184e+00 0.0000000000000000e+00  2.6284183350387170e-02 1.0164753683891259e+00 0.0000000000000000e+00  2.5940738472237573e-02 1.0169524737667786e+00 0.0000000000000000e+00  2.5627649006079105e-02 1.0173702664810540e+00 0.0000000000000000e+00  2.5269718649206151e-02 1.0178294226543820e+00 0.0000000000000000e+00  2.4925467884839427e-02 1.0182538152890430e+00 0.0000000000000000e+00  2.4570628709284243e-02 1.0186748671469619e+00 0.0000000000000000e+00  2.4186399307500415e-02 1.0191133296657036e+00 0.0000000000000000e+00  2.3831655415053554e-02 1.0195030869661552e+00 0.0000000000000000e+00  2.3422976666402504e-02 1.0199353530917650e+00 0.0000000000000000e+00  2.3049318474592660e-02 1.0203158499208056e+00 0.0000000000000000e+00  2.2636609168782997e-02 1.0207207452808922e+00 0.0000000000000000e+00  2.2223784643574950e-02 1.0211105517177994e+00 0.0000000000000000e+00  2.1821792396109090e-02 1.0214763378463343e+00 0.0000000000000000e+00  2.1372651668766389e-02 1.0218698002727604e+00 0.0000000000000000e+00  2.0966518988397739e-02 1.0222124626646365e+00 0.0000000000000000e+00  2.0502431203378673e-02 1.0225895438447232e+00 0.0000000000000000e+00  2.0069504811987330e-02 1.0229280456342504e+00 0.0000000000000000e+00  1.9613809035835348e-02 1.0232711798766370e+00 0.0000000000000000e+00  1.9137143860548489e-02 1.0236162952248946e+00 0.0000000000000000e+00  1.8693443303629285e-02 1.0239254088070606e+00 0.0000000000000000e+00  1.8189025017162783e-02 1.0242632092469002e+00 0.0000000000000000e+00  1.7734644679506563e-02 1.0245555944237761e+00 0.0000000000000000e+00  1.7227314395664682e-02 1.0248692399259622e+00 0.0000000000000000e+00  1.6736719326961160e-02 1.0251601599474245e+00 0.0000000000000000e+00  1.6248710022229770e-02 1.0254379122633615e+00 0.0000000000000000e+00  1.5717440999441629e-02 1.0257275394344245e+00 0.0000000000000000e+00  1.5236857267964572e-02 1.0259784721936498e+00 0.0000000000000000e+00  1.4689190232323988e-02 1.0262520283832903e+00 0.0000000000000000e+00  1.4189538335113324e-02 1.0264904217261963e+00 0.0000000000000000e+00  1.3652997308186785e-02 1.0267348907576694e+00 0.0000000000000000e+00  1.3110310586063571e-02 1.0269703522560969e+00 0.0000000000000000e+00  1.2597295298494078e-02 1.0271823133772837e+00 0.0000000000000000e+00  1.2023334736310469e-02 1.0274075226527706e+00 0.0000000000000000e+00  1.1510273882140029e-02 1.0275984266416558e+00 0.0000000000000000e+00  1.0933269466565242e-02 1.0278016519013424e+00 0.0000000000000000e+00  1.0391451312703847e-02 1.0279816681726450e+00 0.0000000000000000e+00  9.8388891216392611e-03 1.0281546868861771e+00 0.0000000000000000e+00  9.2543371823866592e-03 1.0283263297602163e+00 0.0000000000000000e+00  8.7219439863813631e-03 1.0284726506308044e+00 0.0000000000000000e+00  8.1191200115624529e-03 1.0286270083071578e+00 0.0000000000000000e+00  7.5778110972105775e-03 1.0287555318885322e+00 0.0000000000000000e+00  6.9866671530421582e-03 1.0288851512238555e+00 0.0000000000000000e+00  6.4077882297355277e-03 1.0290013650587051e+00 0.0000000000000000e+00  5.8492947910208067e-03 1.0291035620368187e+00 0.0000000000000000e+00  5.2366468838079619e-03 1.0292045866101129e+00 0.0000000000000000e+00  4.6900083586250115e-03 1.0292850380208076e+00 0.0000000000000000e+00  4.0734512462028373e-03 1.0293649171464159e+00 0.0000000000000000e+00  3.5082530669556058e-03 1.0294281065100583e+00 0.0000000000000000e+00  2.9182308113370465e-03 1.0294839017673052e+00 0.0000000000000000e+00  2.3125194759290903e-03 1.0295304386201414e+00 0.0000000000000000e+00  1.7540293289980012e-03 1.0295637500285244e+00 0.0000000000000000e+00  1.1283749646444504e-03 1.0295901729977970e+00 0.0000000000000000e+00  5.7240840442701678e-04 1.0296040175437531e+00 0.0000000000000000e+00  -4.2168755292606819e-05 1.0296087872257587e+00 0.0000000000000000e+00  -6.2632982998145391e-04 1.0296030714488991e+00 0.0000000000000000e+00  -1.2033546058647191e-03 1.0295876126213488e+00 0.0000000000000000e+00  -1.8213551768954538e-03 1.0295602214317838e+00 0.0000000000000000e+00  -2.3746237938581942e-03 1.0295261666527145e+00 0.0000000000000000e+00  -2.9975908003625493e-03 1.0294769998361100e+00 0.0000000000000000e+00  -3.5578851229270767e-03 1.0294229406692019e+00 0.0000000000000000e+00  -4.1549249003914974e-03 1.0293550195368977e+00 0.0000000000000000e+00  -4.7487095455474261e-03 1.0292768346870673e+00 0.0000000000000000e+00  -5.3057991121479098e-03 1.0291937623824305e+00 0.0000000000000000e+00  -5.9203816570726417e-03 1.0290910920457266e+00 0.0000000000000000e+00  -6.4634767904732104e-03 1.0289906426811211e+00 0.0000000000000000e+00  -7.0681905195416382e-03 1.0288679367055651e+00 0.0000000000000000e+00  -7.6274128676477497e-03 1.0287441483485749e+00 0.0000000000000000e+00  -8.1939968686325013e-03 1.0286084834831075e+00 0.0000000000000000e+00  -8.7839599771820948e-03 1.0284560915083436e+00 0.0000000000000000e+00  -9.3164669232662107e-03 1.0283086371888701e+00 0.0000000000000000e+00  -9.9120560582493002e-03 1.0281323827286142e+00 0.0000000000000000e+00  -1.0439996239727974e-02 1.0279659616703700e+00 0.0000000000000000e+00  -1.1011752515346055e-02 1.0277747166783340e+00 0.0000000000000000e+00  -1.1562652852076661e-02 1.0275793792251986e+00 0.0000000000000000e+00  -1.2090465653710039e-02 1.0273818252380382e+00 0.0000000000000000e+00  -1.2660965713804014e-02 1.0271565582670998e+00 0.0000000000000000e+00  -1.3164567693379758e-02 1.0269473368359323e+00 0.0000000000000000e+00  -1.3726398738969747e-02 1.0267021387161166e+00 0.0000000000000000e+00  -1.4233856912830172e-02 1.0264697018963058e+00 0.0000000000000000e+00  -1.4759766096657564e-02 1.0262175047245923e+00 0.0000000000000000e+00  -1.5290656592759983e-02 1.0259508915513220e+00 0.0000000000000000e+00  -1.5775989747600888e-02 1.0256962586152945e+00 0.0000000000000000e+00  -1.6312216377117161e-02 1.0254024072389902e+00 0.0000000000000000e+00  -1.6782588335640565e-02 1.0251334632796176e+00 0.0000000000000000e+00  -1.7297433433717379e-02 1.0248266749939563e+00 0.0000000000000000e+00  -1.7778448722429532e-02 1.0245278844297458e+00 0.0000000000000000e+00  -1.8250220153417724e-02 1.0242229804259775e+00 0.0000000000000000e+00  -1.8746878817879131e-02 1.0238887834230312e+00 0.0000000000000000e+00  -1.9186632697438279e-02 1.0235811027138046e+00 0.0000000000000000e+00  -1.9675260553401668e-02 1.0232256730655076e+00 0.0000000000000000e+00  -2.0107795903178155e-02 1.0228986062934318e+00 0.0000000000000000e+00  -2.0564539948623121e-02 1.0225399447929997e+00 0.0000000000000000e+00  -2.1009951315956298e-02 1.0221763933230961e+00 0.0000000000000000e+00  -2.1424031437871343e-02 1.0218255766346578e+00 0.0000000000000000e+00  -2.1873012041566258e-02 1.0214304623226531e+00 0.0000000000000000e+00  -2.2264084545639017e-02 1.0210731456173121e+00 0.0000000000000000e+00  -2.2693862185624181e-02 1.0206655058274328e+00 0.0000000000000000e+00  -2.3083445664907238e-02 1.0202816572318645e+00 0.0000000000000000e+00  -2.3474510815429492e-02 1.0198817974878680e+00 0.0000000000000000e+00  -2.3872899867614799e-02 1.0194584819402330e+00 0.0000000000000000e+00  -2.4227876471495668e-02 1.0190668356013133e+00 0.0000000000000000e+00  -2.4617774592532757e-02 1.0186198434191527e+00 0.0000000000000000e+00  -2.4956812834021628e-02 1.0182158421538661e+00 0.0000000000000000e+00  -2.5319031997028320e-02 1.0177672796376918e+00 0.0000000000000000e+00  -2.5659438921992614e-02 1.0173285572947135e+00 0.0000000000000000e+00  -2.5981626460069341e-02 1.0168967526477755e+00 0.0000000000000000e+00  -2.6321439146309241e-02 1.0164223570654212e+00 0.0000000000000000e+00  -2.6615846775899434e-02 1.0159942808320217e+00 0.0000000000000000e+00  -2.6937746827351287e-02 1.0155063888945677e+00 0.0000000000000000e+00  -2.7220950426126288e-02 1.0150584042501327e+00 0.0000000000000000e+00  -2.7509847029441935e-02 1.0145815288312683e+00 0.0000000000000000e+00  -2.7792459872269207e-02 1.0140935606661021e+00 0.0000000000000000e+00  -2.8045950777895547e-02 1.0136358711855302e+00 0.0000000000000000e+00  -2.8318052978737046e-02 1.0131210814318075e+00 0.0000000000000000e+00  -2.8550156558573736e-02 1.0126604809006750e+00 0.0000000000000000e+00  -2.8797957195438709e-02 1.0121441119395838e+00 0.0000000000000000e+00  -2.9020961202844829e-02 1.0116548376569900e+00 0.0000000000000000e+00  -2.9234778134415069e-02 1.0111607929285367e+00 0.0000000000000000e+00  -2.9450814054077512e-02 1.0106331682974905e+00 0.0000000000000000e+00  -2.9636033053921450e-02 1.0101545226756334e+00 0.0000000000000000e+00  -2.9834027491954601e-02 1.0096115008902926e+00 0.0000000000000000e+00  -3.0001662980160087e-02 1.0091220135723535e+00 0.0000000000000000e+00  -3.0172274761611044e-02 1.0085904946896751e+00 0.0000000000000000e+00  -3.0329462081580157e-02 1.0080650242007356e+00 0.0000000000000000e+00  -3.0469454177362243e-02 1.0075618599061871e+00 0.0000000000000000e+00  -3.0612202714399975e-02 1.0070064967641519e+00 0.0000000000000000e+00  -3.0729225819060325e-02 1.0065112812360975e+00 0.0000000000000000e+00  -3.0849679066855280e-02 1.0059531298236157e+00 0.0000000000000000e+00  -3.0950149131324274e-02 1.0054383733425361e+00 0.0000000000000000e+00  -3.1043690263378453e-02 1.0049046135485276e+00 0.0000000000000000e+00  -3.1129234567683656e-02 1.0043520662277101e+00 0.0000000000000000e+00  -3.1197756420654425e-02 1.0038447394427377e+00 0.0000000000000000e+00  -3.1263416658999121e-02 1.0032745429108987e+00 0.0000000000000000e+00  -3.1311839005155266e-02 1.0027668476022784e+00 0.0000000000000000e+00  -3.1354334383934090e-02 1.0022070642603911e+00 0.0000000000000000e+00  -3.1384366905392425e-02 1.0016712036077582e+00 0.0000000000000000e+00  -3.1403765227107271e-02 1.0011449836412722e+00 0.0000000000000000e+00  -3.1413514159915223e-02 1.0005778905517100e+00 0.0000000000000000e+00  -3.1412448815930215e-02 1.0000707724239557e+00 0.0000000000000000e+00  -3.1400188313651628e-02 9.9949909325044073e-01 0.0000000000000000e+00  -3.1379052728832096e-02 9.9898296683756638e-01 0.0000000000000000e+00  -3.1346145888933377e-02 9.9843489465603064e-01 0.0000000000000000e+00  -3.1302377015096999e-02 9.9788607429730181e-01 0.0000000000000000e+00  -3.1251623854208280e-02 9.9737284157762540e-01 0.0000000000000000e+00  -3.1184296020304737e-02 9.9680443445563027e-01 0.0000000000000000e+00  -3.1114943224710825e-02 9.9630157419192600e-01 0.0000000000000000e+00  -3.1026849461566884e-02 9.9574167407541514e-01 0.0000000000000000e+00  -3.0934646930406842e-02 9.9522137366481223e-01 0.0000000000000000e+00  -3.0831311197440491e-02 9.9469576481910671e-01 0.0000000000000000e+00  -3.0712063292065685e-02 9.9414553399519090e-01 0.0000000000000000e+00  -3.0594677869310537e-02 9.9364916812481607e-01 0.0000000000000000e+00  -3.0451882122935269e-02 9.9309265850592798e-01 0.0000000000000000e+00  -3.0314923914003880e-02 9.9259805035188919e-01 0.0000000000000000e+00  -3.0155860578284798e-02 9.9206260156861414e-01 0.0000000000000000e+00  -2.9990998913443926e-02 9.9154413902553995e-01 0.0000000000000000e+00  -2.9823081722315448e-02 9.9104796838918230e-01 0.0000000000000000e+00  -2.9629448789755878e-02 9.9050952599385911e-01 0.0000000000000000e+00  -2.9448236614779258e-02 9.9003358666223229e-01 0.0000000000000000e+00  -2.9234328148441714e-02 9.8950166221449409e-01 0.0000000000000000e+00  -2.9029854899780307e-02 9.8901950322794951e-01 0.0000000000000000e+00  -2.8807085323136271e-02 9.885197662