<?xml version="1.0"?>
<VTKFile type="UnstructuredGrid"  version="0.1"  >
<UnstructuredGrid>
<Piece  NumberOfPoints="4274" NumberOfCells="6764">
<Points>
<DataArray  type="Float64"  NumberOfComponents="3"  format="ascii">0 0.01 0  10 0.01 0  0 1.018213984155887 0  10 1.018213984155887 0  0.007129524987038337 0.009997491741717768 0  0.01258064459049757 0.00999219056738478 0  0.01872173241756402 0.009982708334120727 0  0.02429919625640796 0.009970876572043954 0  0.03017238705920286 0.009955108531615313 0  0.03612352734296466 0.0099356743715591 0  0.04164979236492252 0.009914517792428084 0  0.04780928449023854 0.009887415768096998 0  0.05327287671237849 0.009860276931383746 0  0.0593436395885565 0.009826715421083503 0  0.06505608699933001 0.009791870631895848 0  0.07077243060783153 0.009753845329312128 0  0.07684085351634186 0.009710036052663748 0  0.08230528612367993 0.009667566921662384 0  0.08846525752759338 0.009616276826848907 0  0.09398926586603956 0.0095672187064786 0  0.09994377871281757 0.009511110804477986 0  0.10581288515308 0.009452550633355501 0  0.1113930001121819 0.009393893683773193 0  0.1175326299024069 0.009326020378011352 0  0.122983161250664 0.009262856809916281 0  0.1290978349347763 0.009188765415777931 0  0.1347300222736412 0.00911751981665075 0  0.1405327472005438 0.009041131768776852 0  0.1465421455697866 0.008958856277281909 0  0.1520341809431761 0.008880870879718691 0  0.1581991754706344 0.00879018143976357 0  0.1636834803794234 0.008706732874359017 0  0.1697073563005918 0.008612096527554045 0  0.1754901396361989 0.008518345936558386 0  0.1811391035120075 0.008424050210098115 0  0.1872444279222087 0.00831915423323064 0  0.1926961446341008 0.008222899998379215 0  0.198841090009393 0.008111516418624823 0  0.2044064770158165 0.008008028244452866 0  0.2102948627703611 0.007895869216798803 0  0.2162299794791283 0.007780085801116003 0  0.2217647046821167 0.007669675498109103 0  0.2279204403470532 0.007544154739747676 0  0.2333791472114919 0.007430485124751003 0  0.2394590817234977 0.0073013084386626 0  0.245152498789355 0.007177928079207972 0  0.2508861115607116 0.007051356111670669 0  0.2569419868439766 0.006915186417023598 0  0.2624099649457279 0.006790084113692359 0  0.2685711825796066 0.006646722567663751 0  0.274083748205357 0.006516341894728842 0  0.2800541704182985 0.00637292855786236 0  0.2859022845836161 0.006230279166502627 0  0.291495955429921 0.006091868246150131 0  0.2976275706217687 0.005937986548763313 0  0.3030757324287757 0.005799406374294222 0  0.3091980118239236 0.005641654227187252 0  0.3148109405089491 0.005495191514879527 0  0.3206341933715942 0.005341435282378838 0  0.3266248575896781 0.005181393525330103 0  0.3321252080346692 0.005032833254881577 0  0.3382880718234609 0.004864596209960478 0  0.3437628463580178 0.004713611578807419 0  0.3498021006600692 0.004545443593512952 0  0.3555594631656461 0.004383601001460968 0  0.3612291099056053 0.004222822711549606 0  0.3673210805066339 0.004048576418709386 0  0.3727746135437823 0.003891330909934085 0  0.3789246700786391 0.003712634483246944 0  0.3844721023230384 0.00355025746928806 0  0.3903845048135511 0.003376011435332509 0  0.3962935688476314 0.003200699755406988 0  0.4018430601204535 0.00303505085978487 0  0.4079921977692303 0.002850427660455144 0  0.4134449905916002 0.002685819499171436 0  0.4195385366679084 0.002500937932218923 0  0.425204482428441 0.002328206591247292 0  0.4309651825948974 0.00215183074136113 0  0.4370014133195289 0.001966263547608745 0  0.4424769325836848 0.00179732019881714 0  0.4486395183564056 0.001606544730410899 0  0.4541373275735043 0.001435838569361521 0  0.4601308451156257 0.001249254088784412 0  0.4659488863550298 0.001067707976620331 0  0.471564807260988 0.0008921302908496037 0  0.4776843759254726 0.0007004920228137959 0  0.4831317484445766 0.0005296836585198918 0  0.4892643513384632 0.0003372062279158936 0  0.4948528283485032 0.000161696161435303 0  0.5007056813361916 -2.216943068070812e-05 0  0.5066699093509902 -0.000209526046556915 0  0.5121845298566023 -0.0003826949545447442 0  0.5183439831944545 -0.0005759742926309219 0  0.5238088617282698 -0.0007472800272428554 0  0.5298681543527348 -0.0009369594486414562 0  0.5355929349139432 -0.001115856450691032 0  0.5412927239341832 -0.001293613669039852 0  0.5473668732672543 -0.001482588207084091 0  0.5528259073001393 -0.001651967505962102 0  0.5589819336317072 -0.001842386787779294 0  0.5645100189486582 -0.002012797049529044 0  0.5704524332663232 -0.002195301346534757 0  0.5763298911552834 -0.002375058665203144 0  0.5819006708717119 -0.002544689651648297 0  0.5880413281562127 -0.002730768313747055 0  0.5934904284812221 -0.002895042191696308 0  0.5995995320960693 -0.003078202338538874 0  0.605236779888003 -0.003246210954182579 0  0.6110299855290301 -0.003417806240976177 0  0.6170432999212266 -0.00359472323302265 0  0.6225307972792151 -0.00375505261922207 0  0.6286944373476531 -0.003933803567825084 0  0.6341794289295242 -0.004091634709336539 0  0.6401977648984302 -0.004263413669385436 0  0.6459846030577213 -0.004427148756161272 0  0.6516277670629291 -0.004585409549508515 0  0.6577342305863492 -0.004755038487876419 0  0.6631843111407589 -0.004904958327357115 0  0.6693271588517591 -0.005072208653571043 0  0.6748942591145469 -0.005222152905474348 0  0.6807781354428797 -0.005378892074409919 0  0.6867158102497221 -0.005535201343768038 0  0.6922478556369909 -0.005679100421160843 0  0.6984036264198542 -0.005837205328254034 0  0.7038624132928571 -0.005975584427524931 0  0.7099402809449575 -0.006127588021236129 0  0.7156361945945205 -0.006268012368771779 0  0.7213667017809595 -0.006407263887957157 0  0.7274241898103784 -0.006552202568912044 0  0.7328913375361901 -0.006680980644346233 0  0.7390522654079078 -0.006823736587757829 0  0.7445663161830813 -0.006949337256267011 0  0.7505345306161221 -0.007082931996795786 0  0.7563856967966242 -0.007211490056377221 0  0.7619775509571868 -0.007332073958440476 0  0.7681106054434813 -0.007461725199742056 0  0.7735594228940573 -0.007574589702563127 0  0.7796809699364847 -0.007698739982391196 0  0.7852974086111042 -0.007810142587226769 0  0.7911178568436495 -0.007923025648348906 0  0.797112403703894 -0.008036515862006795 0  0.8026119630288198 -0.008138129173272899 0  0.8087760180262171 -0.008249131188213875 0  0.814253500572072 -0.008345174877796967 0  0.8202905515677629 -0.008448166667805387 0  0.8260544286221699 -0.008543663134562481 0  0.831720415905675 -0.008634807324656511 0  0.8378167080097026 -0.008729817306667463 0  0.8432709709919499 -0.008812108559864256 0  0.8494209576248264 -0.008901791974276371 0  0.8549745826348545 -0.008979924427376591 0  0.8608814329347291 -0.009060026011188804 0  0.8667998142885592 -0.009137155111096256 0  0.8723460990452367 -0.009206568509458774 0  0.8784989383774584 -0.009280301817794542 0  0.8839552890388401 -0.009342788637451834 0  0.8900456692707091 -0.009409293585850673 0  0.8957233874467343 -0.009468190513990782 0  0.9014754209053449 -0.009524786393944277 0  0.9075213579987256 -0.009580921173179099 0  0.9129954731058688 -0.009628765913494807 0  0.9191593188847452 -0.009679229788646495 0  0.9246655330424429 -0.009721240864333262 0  0.9306503084472221 -0.009763603884533442 0  0.9364847200361547 -0.009801580348484516 0  0.9420914259676206 -0.009834972127394636 0  0.948219177636862 -0.009867976960504428 0  0.9536688877131657 -0.009894257783109666 0  0.9597979104438458 -0.009920349306153329 0  0.9654020314719589 -0.009940987600901847 0  0.9712398170272581 -0.009959209624459757 0  0.9772219132298864 -0.009974407121723252 0  0.9827297975109929 -0.009985285083248089 0  0.9888934840407251 -0.009993913310034224 0  0.9943667421923366 -0.009998434045983932 0  1.000414962337846 -0.009999991502249178 0  1.00616395254491 -0.009998125110441144 0  1.011844857354635 -0.009993077234903055 0  1.017933801412069 -0.009984132829796667 0  1.023390946643176 -0.00997301205183276 0  1.029544679732296 -0.009956955598792184 0  1.035089558108845 -0.009939300412459717 0  1.041010936359372 -0.009917116481575694 0  1.04691554237944 -0.00989157814857561 0  1.052471258615448 -0.009864440751261633 0  1.05862104751389 -0.009830897850136421 0  1.064075481579663 -0.009798076706746352 0  1.070173358231585 -0.009757978136698224 0  1.075837941143087 -0.00971752009646258 0  1.081604377355612 -0.009673173917302162 0  1.087640686528322 -0.009623351755525641 0  1.093119387704205 -0.009575135453199036 0  1.099284093826516 -0.009517491101966447 0  1.104783734376909 -0.009463052176492596 0  1.110779897618174 -0.009400480030121557 0  1.116599992234411 -0.00933655469875222 0  1.122217899723542 -0.009271889359757672 0  1.128339818747432 -0.009198135031144493 0  1.133789446190431 -0.00912961705214143 0  1.139923317158062 -0.009049295973540348 0  1.145515844317945 -0.008973134373133167 0  1.151367773813766 -0.008890475161473248 0  1.157336906671575 -0.008803064948780913 0  1.16285160438384 -0.008719557366803981 0  1.16901331600552 -0.008623157866544266 0  1.174481522907442 -0.00853490108265173 0  1.180539122189597 -0.008434191931863186 0  1.186271617394136 -0.008336073959344166 0  1.191966996821913 -0.008235914041393521 0  1.198046448076202 -0.008126091334838595 0  1.203505695906331 -0.008024945109277802 0  1.209661806077474 -0.007908057515838151 0  1.21519584913737 -0.007800455577732041 0  1.221132109188887 -0.00768241304184519 0  1.227019087412133 -0.007562711583992629 0  1.232585135446325 -0.007447155722966398 0  1.238729389023077 -0.007316953404904543 0  1.244180486899644 -0.007199156086382225 0  1.250286093435722 -0.007064709646262071 0  1.255932842016573 -0.006938052500145445 0  1.261716857103797 -0.006806053534187844 0  1.26773845151126 -0.006666245775332091 0  1.273222687278595 -0.006536836953056475 0  1.279386853652711 -0.00638906998029936 0  1.284876650734994 -0.006255450389977176 0  1.290887326898431 -0.00610702037198264 0  1.296685536664392 -0.00596177282270944 0  1.30231949087952 -0.005818744638503708 0  1.308431215520824
[...]
<PointData  Vectors="Velocity"> 
<DataArray  type="Float64"  Name="Velocity"  NumberOfComponents="3" format="ascii">-1.4069483960894601e-10 9.7039118677891545e-01 0.0000000000000000e+00  -1.4069483960894601e-10 9.7039118677891545e-01 0.0000000000000000e+00  1.2638586553833446e-05 -3.0058924263576349e-02 0.0000000000000000e+00  1.2638586553833446e-05 -3.0058924263576349e-02 0.0000000000000000e+00  6.8276937182112766e-04 9.7039837325287193e-01 0.0000000000000000e+00  1.2046099753951637e-03 9.7041356190796346e-01 0.0000000000000000e+00  1.7921088236472862e-03 9.7044073060039393e-01 0.0000000000000000e+00  2.3251659671964437e-03 9.7047463240340559e-01 0.0000000000000000e+00  2.8857804098589746e-03 9.7051981479176419e-01 0.0000000000000000e+00  3.4529207911908099e-03 9.7057550524310510e-01 0.0000000000000000e+00  3.9785890405858101e-03 9.7063613546958050e-01 0.0000000000000000e+00  4.5631958151112388e-03 9.7071380995714751e-01 0.0000000000000000e+00  5.0804550686222548e-03 9.7079159647467550e-01 0.0000000000000000e+00  5.6535890467203104e-03 9.7088780113425421e-01 0.0000000000000000e+00  6.1911839139432035e-03 9.7098769529373674e-01 0.0000000000000000e+00  6.7273225118676429e-03 9.7109671997972968e-01 0.0000000000000000e+00  7.2943106671726548e-03 9.7122234431469323e-01 0.0000000000000000e+00  7.8027982631433818e-03 9.7134414213675480e-01 0.0000000000000000e+00  8.3734814817761939e-03 9.7149125981827533e-01 0.0000000000000000e+00  8.8828125426139680e-03 9.7163199780309473e-01 0.0000000000000000e+00  9.4290914018459373e-03 9.7179298653219415e-01 0.0000000000000000e+00  9.9645790769268116e-03 9.7196104194736166e-01 0.0000000000000000e+00  1.0470824136045852e-02 9.7212940664520220e-01 0.0000000000000000e+00  1.1024416329995372e-02 9.7232426408409389e-01 0.0000000000000000e+00  1.1512728187689206e-02 9.7250563745775387e-01 0.0000000000000000e+00  1.2056846596717342e-02 9.7271843644733869e-01 0.0000000000000000e+00  1.2554419676004831e-02 9.7292310935791360e-01 0.0000000000000000e+00  1.3063279400994584e-02 9.7314260649643591e-01 0.0000000000000000e+00  1.3586052216469189e-02 9.7337907986902905e-01 0.0000000000000000e+00  1.4059924490803998e-02 9.7360327989580309e-01 0.0000000000000000e+00  1.4587262813222635e-02 9.7386407267470809e-01 0.0000000000000000e+00  1.5052141509187850e-02 9.7410410934309077e-01 0.0000000000000000e+00  1.5558004056056247e-02 9.7437640356640776e-01 0.0000000000000000e+00  1.6038781329967736e-02 9.7464623024144914e-01 0.0000000000000000e+00  1.6503709337450857e-02 9.7491770734457295e-01 0.0000000000000000e+00  1.7000786713093068e-02 9.7521979773083489e-01 0.0000000000000000e+00  1.7439760197010486e-02 9.7549708870141638e-01 0.0000000000000000e+00  1.7928861576896299e-02 9.7581807129124765e-01 0.0000000000000000e+00  1.8366489061507840e-02 9.7611640348053530e-01 0.0000000000000000e+00  1.8823833630642620e-02 9.7643984222896230e-01 0.0000000000000000e+00  1.9278750807728055e-02 9.7677385352513224e-01 0.0000000000000000e+00  1.9697358931170982e-02 9.7709248013478567e-01 0.0000000000000000e+00  2.0156414420923811e-02 9.7745484946641492e-01 0.0000000000000000e+00  2.0557613735649745e-02 9.7778313031273034e-01 0.0000000000000000e+00  2.0997819156203457e-02 9.7815634057119916e-01 0.0000000000000000e+00  2.1403552476104884e-02 9.7851294888684803e-01 0.0000000000000000e+00  2.1805671559682285e-02 9.7887892849095015e-01 0.0000000000000000e+00  2.2223191514606659e-02 9.7927282470798671e-01 0.0000000000000000e+00  2.2593699093660123e-02 9.7963485742296463e-01 0.0000000000000000e+00  2.3003671777676132e-02 9.8004990994048891e-01 0.0000000000000000e+00  2.3363616546926109e-02 9.8042754710170243e-01 0.0000000000000000e+00  2.3746009851123868e-02 9.8084311404936553e-01 0.0000000000000000e+00  2.4112934234252977e-02 9.8125665719856270e-01 0.0000000000000000e+00  2.4456704514248442e-02 9.8165809537015825e-01 0.0000000000000000e+00  2.4825329560270504e-02 9.8210461364546076e-01 0.0000000000000000e+00  2.5145552696755988e-02 9.8250692010784935e-01 0.0000000000000000e+00  2.5497061555365363e-02 9.8296510333106180e-01 0.0000000000000000e+00  2.5811461452399563e-02 9.8339070653935989e-01 0.0000000000000000e+00  2.6129577436863116e-02 9.8383772020543014e-01 0.0000000000000000e+00  2.6448151369442233e-02 9.8430324289002258e-01 0.0000000000000000e+00  2.6732788828702048e-02 9.8473558471251199e-01 0.0000000000000000e+00  2.7042655160411662e-02 9.8522544189872874e-01 0.0000000000000000e+00  2.7309799351851041e-02 9.8566529262177316e-01 0.0000000000000000e+00  2.7595510749929785e-02 9.8615545477713340e-01 0.0000000000000000e+00  2.7859020407982153e-02 9.8662743343197634e-01 0.0000000000000000e+00  2.8109960763942326e-02 9.8709655500251636e-01 0.0000000000000000e+00  2.8370033356221194e-02 9.8760525022532097e-01 0.0000000000000000e+00  2.8594362105755909e-02 9.8806455996364184e-01 0.0000000000000000e+00  2.8837624398197381e-02 9.8858681420914807e-01 0.0000000000000000e+00  2.9048130557439409e-02 9.8906163845635953e-01 0.0000000000000000e+00  2.9263086370717759e-02 9.8957144947493803e-01 0.0000000000000000e+00  2.9468144337946561e-02 9.9008467057157479e-01 0.0000000000000000e+00  2.9651749503549804e-02 9.9056987563500676e-01 0.0000000000000000e+00  2.9844958142785302e-02 9.9111096897521345e-01 0.0000000000000000e+00  3.0007217103288440e-02 9.9159367799198472e-01 0.0000000000000000e+00  3.0178379202423288e-02 9.9213614862789645e-01 0.0000000000000000e+00  3.0327838542841320e-02 9.9264326724444052e-01 0.0000000000000000e+00  3.0470159447537302e-02 9.9316138321164793e-01 0.0000000000000000e+00  3.0608793377458501e-02 9.9370682334021398e-01 0.0000000000000000e+00  3.0725204425996803e-02 9.9420368997067510e-01 0.0000000000000000e+00  3.0845531602508771e-02 9.9476509948433378e-01 0.0000000000000000e+00  3.0943270685679512e-02 9.9526774981034738e-01 0.0000000000000000e+00  3.1039446393202500e-02 9.9581747763136641e-01 0.0000000000000000e+00  3.1122411620062518e-02 9.9635268623515716e-01 0.0000000000000000e+00  3.1192732619831021e-02 9.9687060706119102e-01 0.0000000000000000e+00  3.1258408295300459e-02 9.9743624714414658e-01 0.0000000000000000e+00  3.1307219682255957e-02 9.9794070774636301e-01 0.0000000000000000e+00  3.1351258759851883e-02 9.9850950875081590e-01 0.0000000000000000e+00  3.1381297240783750e-02 9.9902848673743172e-01 0.0000000000000000e+00  3.1402414425581379e-02 9.9957249653899549e-01 0.0000000000000000e+00  3.1413021622998943e-02 1.0001271771336364e+00 0.0000000000000000e+00  3.1413005055157900e-02 1.0006401625477916e+00 0.0000000000000000e+00  3.1401813075503708e-02 1.0012130729421960e+00 0.0000000000000000e+00  3.1382002903682329e-02 1.0017211595049142e+00 0.0000000000000000e+00  3.1349159688726640e-02 1.0022840802287316e+00 0.0000000000000000e+00  3.1307620983270480e-02 1.0028153293982789e+00 0.0000000000000000e+00  3.1256110540201387e-02 1.0033435104314326e+00 0.0000000000000000e+00  3.1190069747429064e-02 1.0039053671125515e+00 0.0000000000000000e+00  3.1120909186397459e-02 1.0044092652226020e+00 0.0000000000000000e+00  3.1031786631306076e-02 1.0049761004592488e+00 0.0000000000000000e+00  3.0941711184107368e-02 1.0054836821565583e+00 0.0000000000000000e+00  3.0834300970912408e-02 1.0060276092877229e+00 0.0000000000000000e+00  3.0717298400294472e-02 1.0065636756773504e+00 0.0000000000000000e+00  3.0596539779448966e-02 1.0070698428908136e+00 0.0000000000000000e+00  3.0452332871173531e-02 1.0076254227731021e+00 0.0000000000000000e+00  3.0314654840893102e-02 1.0081161896390440e+00 0.0000000000000000e+00  3.0149475346160824e-02 1.0086637003061025e+00 0.0000000000000000e+00  2.9986941053899790e-02 1.0091662189417343e+00 0.0000000000000000e+00  2.9809838745264296e-02 1.0096797613052761e+00 0.0000000000000000e+00  2.9615255980227368e-02 1.0102095427604669e+00 0.0000000000000000e+00  2.9428178079580865e-02 1.0106899264398210e+00 0.0000000000000000e+00  2.9207281448564715e-02 1.0112258155265004e+00 0.0000000000000000e+00  2.9001183016520337e-02 1.0116992593351197e+00 0.0000000000000000e+00  2.8764783811350281e-02 1.0122148305947425e+00 0.0000000000000000e+00  2.8527420255623451e-02 1.0127065398866104e+00 0.0000000000000000e+00  2.8286521342939897e-02 1.0131820718239883e+00 0.0000000000000000e+00  2.8015428668744159e-02 1.0136920474186426e+00 0.0000000000000000e+00  2.7764410372334149e-02 1.0141430143656722e+00 0.0000000000000000e+00  2.7471301610246662e-02 1.0146463861377863e+00 0.0000000000000000e+00  2.7196435778234690e-02 1.0150979178739761e+00 0.0000000000000000e+00  2.6896478063551825e-02 1.0155701592253583e+00 0.0000000000000000e+00  2.6584021633650794e-02 1.0160413575247116e+00 0.0000000000000000e+00  2.6284182147896733e-02 1.0164753684960184e+00 0.0000000000000000e+00  2.5940760990126460e-02 1.0169524731519795e+00 0.0000000000000000e+00  2.5627664567738892e-02 1.0173702660950970e+00 0.0000000000000000e+00  2.5269725230511755e-02 1.0178294224901465e+00 0.0000000000000000e+00  2.4925474412503680e-02 1.0182538151245812e+00 0.0000000000000000e+00  2.4570645839769104e-02 1.0186748667010472e+00 0.0000000000000000e+00  2.4186405229252691e-02 1.0191133295108004e+00 0.0000000000000000e+00  2.3831670479348657e-02 1.0195030865799919e+00 0.0000000000000000e+00  2.3422991121199173e-02 1.0199353527178994e+00 0.0000000000000000e+00  2.3049328459314559e-02 1.0203158496792815e+00 0.0000000000000000e+00  2.2636613328501642e-02 1.0207207451761082e+00 0.0000000000000000e+00  2.2223788010732787e-02 1.0211105516204213e+00 0.0000000000000000e+00  2.1821794818071612e-02 1.0214763377600413e+00 0.0000000000000000e+00  2.1372652412098785e-02 1.0218698002266795e+00 0.0000000000000000e+00  2.0966523291562105e-02 1.0222124625311015e+00 0.0000000000000000e+00  2.0502433245125504e-02 1.0225895437606212e+00 0.0000000000000000e+00  2.0069505222361717e-02 1.0229280455958141e+00 0.0000000000000000e+00  1.9613809282902715e-02 1.0232711798249992e+00 0.0000000000000000e+00  1.9137143910062958e-02 1.0236162952025851e+00 0.0000000000000000e+00  1.8693441647222690e-02 1.0239254087977585e+00 0.0000000000000000e+00  1.8189024262628910e-02 1.0242632092287836e+00 0.0000000000000000e+00  1.7734643034552740e-02 1.0245555944486824e+00 0.0000000000000000e+00  1.7227312034772943e-02 1.0248692399736989e+00 0.0000000000000000e+00  1.6736721007319027e-02 1.0251601599271185e+00 0.0000000000000000e+00  1.6248703623475247e-02 1.0254379123634298e+00 0.0000000000000000e+00  1.5717438423560045e-02 1.0257275394636860e+00 0.0000000000000000e+00  1.5236852982359583e-02 1.0259784722371097e+00 0.0000000000000000e+00  1.4689186945727489e-02 1.0262520284158874e+00 0.0000000000000000e+00  1.4189536657628588e-02 1.0264904217420261e+00 0.0000000000000000e+00  1.3652993265345364e-02 1.0267348907886282e+00 0.0000000000000000e+00  1.3110306599853216e-02 1.0269703522828217e+00 0.0000000000000000e+00  1.2597287671682923e-02 1.0271823133550941e+00 0.0000000000000000e+00  1.2023329858979893e-02 1.0274075226177282e+00 0.0000000000000000e+00  1.1510267075910841e-02 1.0275984265773259e+00 0.0000000000000000e+00  1.0933265958061563e-02 1.0278016518590960e+00 0.0000000000000000e+00  1.0391449727267662e-02 1.0279816681740082e+00 0.0000000000000000e+00  9.8388862400599578e-03 1.0281546868591338e+00 0.0000000000000000e+00  9.2543353979569337e-03 1.0283263297410559e+00 0.0000000000000000e+00  8.7219396291200232e-03 1.0284726506014295e+00 0.0000000000000000e+00  8.1191193166316854e-03 1.0286270083099818e+00 0.0000000000000000e+00  7.5778105457638004e-03 1.0287555318896746e+00 0.0000000000000000e+00  6.9866669350528605e-03 1.0288851512277943e+00 0.0000000000000000e+00  6.4077886479806763e-03 1.0290013650788195e+00 0.0000000000000000e+00  5.8492942230877528e-03 1.0291035620463336e+00 0.0000000000000000e+00  5.2366474897815726e-03 1.0292045866379482e+00 0.0000000000000000e+00  4.6900101169257058e-03 1.0292850380772471e+00 0.0000000000000000e+00  4.0734525017151572e-03 1.0293649171799282e+00 0.0000000000000000e+00  3.5082553049561871e-03 1.0294281065818787e+00 0.0000000000000000e+00  2.9182337188022093e-03 1.0294839017525041e+00 0.0000000000000000e+00  2.3125203299190909e-03 1.0295304386222659e+00 0.0000000000000000e+00  1.7540316300430629e-03 1.0295637499713555e+00 0.0000000000000000e+00  1.1283768230142077e-03 1.0295901729714934e+00 0.0000000000000000e+00  5.7241017610383798e-04 1.0296040175331564e+00 0.0000000000000000e+00  -4.2166936469117220e-05 1.0296087872259383e+00 0.0000000000000000e+00  -6.2632712000961930e-04 1.0296030714130915e+00 0.0000000000000000e+00  -1.2033515700165492e-03 1.0295876125331875e+00 0.0000000000000000e+00  -1.8213522121087932e-03 1.0295602213765276e+00 0.0000000000000000e+00  -2.3746186179476997e-03 1.0295261665762434e+00 0.0000000000000000e+00  -2.9975876357877314e-03 1.0294769997938691e+00 0.0000000000000000e+00  -3.5578813965535883e-03 1.0294229406387303e+00 0.0000000000000000e+00  -4.1549172987423635e-03 1.0293550194309411e+00 0.0000000000000000e+00  -4.7487044023284009e-03 1.0292768346020056e+00 0.0000000000000000e+00  -5.3057859943979714e-03 1.0291937621405933e+00 0.0000000000000000e+00  -5.9203783533976345e-03 1.0290910920015712e+00 0.0000000000000000e+00  -6.4634748239433566e-03 1.0289906426550175e+00 0.0000000000000000e+00  -7.0681882211028422e-03 1.0288679366752755e+00 0.0000000000000000e+00  -7.6274109580402863e-03 1.0287441483339359e+00 0.0000000000000000e+00  -8.1939924044378363e-03 1.0286084834230471e+00 0.0000000000000000e+00  -8.7839575729330415e-03 1.0284560914999186e+00 0.0000000000000000e+00  -9.3164614907831830e-03 1.0283086371597143e+00 0.0000000000000000e+00  -9.9120523949863520e-03 1.0281323826990842e+00 0.0000000000000000e+00  -1.0439992675568697e-02 1.0279659616188446e+00 0.0000000000000000e+00  -1.1011739539440584e-02 1.0277747164878672e+00 0.0000000000000000e+00  -1.1562650025592550e-02 1.0275793791971870e+00 0.0000000000000000e+00  -1.2090454103163796e-02 1.0273818250847806e+00 0.0000000000000000e+00  -1.2660961395970002e-02 1.0271565582507178e+00 0.0000000000000000e+00  -1.3164563045607426e-02 1.0269473368001423e+00 0.0000000000000000e+00  -1.3726395574848246e-02 1.0267021387022426e+00 0.0000000000000000e+00  -1.4233850612029628e-02 1.0264697019113969e+00 0.0000000000000000e+00  -1.4759760721093799e-02 1.0262175047606590e+00 0.0000000000000000e+00  -1.5290657857000260e-02 1.0259508915531133e+00 0.0000000000000000e+00  -1.5775991928411701e-02 1.0256962586099152e+00 0.0000000000000000e+00  -1.6312219640076991e-02 1.0254024072060590e+00 0.0000000000000000e+00  -1.6782593956632511e-02 1.0251334632116369e+00 0.0000000000000000e+00  -1.7297435397966077e-02 1.0248266749489385e+00 0.0000000000000000e+00  -1.7778449613870817e-02 1.0245278844131891e+00 0.0000000000000000e+00  -1.8250219978410975e-02 1.0242229804138232e+00 0.0000000000000000e+00  -1.8746880103723607e-02 1.0238887834019839e+00 0.0000000000000000e+00  -1.9186634457746588e-02 1.0235811026926729e+00 0.0000000000000000e+00  -1.9675260490445191e-02 1.0232256730659606e+00 0.0000000000000000e+00  -2.0107800259654973e-02 1.0228986062698731e+00 0.0000000000000000e+00  -2.0564543753486399e-02 1.0225399447799381e+00 0.0000000000000000e+00  -2.1009958305674779e-02 1.0221763932836376e+00 0.0000000000000000e+00  -2.1424034762764090e-02 1.0218255766369579e+00 0.0000000000000000e+00  -2.1873012738922434e-02 1.0214304623366208e+00 0.0000000000000000e+00  -2.2264083303681740e-02 1.0210731456606508e+00 0.0000000000000000e+00  -2.2693858162692926e-02 1.0206655058844396e+00 0.0000000000000000e+00  -2.3083443140985881e-02 1.0202816572723326e+00 0.0000000000000000e+00  -2.3474505116521872e-02 1.0198817975681118e+00 0.0000000000000000e+00  -2.3872896825718054e-02 1.0194584819872339e+00 0.0000000000000000e+00  -2.4227871249487672e-02 1.0190668356879875e+00 0.0000000000000000e+00  -2.4617770149286389e-02 1.0186198434941429e+00 0.0000000000000000e+00  -2.4956808761447118e-02 1.0182158422054530e+00 0.0000000000000000e+00  -2.5319029359235985e-02 1.0177672796834316e+00 0.0000000000000000e+00  -2.5659433862303429e-02 1.0173285573848119e+00 0.0000000000000000e+00  -2.5981613885747094e-02 1.0168967529860433e+00 0.0000000000000000e+00  -2.6321435132169276e-02 1.0164223571773008e+00 0.0000000000000000e+00  -2.6615842642124229e-02 1.0159942809792180e+00 0.0000000000000000e+00  -2.6937744000952588e-02 1.0155063889901892e+00 0.0000000000000000e+00  -2.7220949894325688e-02 1.0150584042675344e+00 0.0000000000000000e+00  -2.7509845014631235e-02 1.0145815289074234e+00 0.0000000000000000e+00  -2.7792458546074702e-02 1.0140935607151311e+00 0.0000000000000000e+00  -2.8045947952244080e-02 1.0136358712878430e+00 0.0000000000000000e+00  -2.8318050348511196e-02 1.0131210815279763e+00 0.0000000000000000e+00  -2.8550156373405595e-02 1.0126604809260957e+00 0.0000000000000000e+00  -2.8797957318145523e-02 1.0121441119446033e+00 0.0000000000000000e+00  -2.9020962295190186e-02 1.0116548376318706e+00 0.0000000000000000e+00  -2.9234777971545122e-02 1.0111607929343733e+00 0.0000000000000000e+00  -2.9450813509043581e-02 1.0106331683183938e+00 0.0000000000000000e+00  -2.9636032086290676e-02 1.0101545227079289e+00 0.0000000000000000e+00  -2.9834027194025586e-02 1.0096115008990723e+00 0.0000000000000000e+00  -3.0001662799965939e-02 1.0091220135784185e+00 0.0000000000000000e+00  -3.0172274740977625e-02 1.0085904946901671e+00 0.0000000000000000e+00  -3.0329462015889725e-02 1.0080650242025897e+00 0.0000000000000000e+00  -3.0469454023225043e-02 1.0075618599104157e+00 0.0000000000000000e+00  -3.0612202245941845e-02 1.0070064967770107e+00 0.0000000000000000e+00  -3.0729225397420047e-02 1.0065112812468329e+00 0.0000000000000000e+00  -3.0849677904497812e-02 1.0059531298523730e+00 0.0000000000000000e+00  -3.0950148361584943e-02 1.0054383733596781e+00 0.0000000000000000e+00  -3.1043690187184052e-02 1.0049046135495030e+00 0.0000000000000000e+00  -3.1129234376910963e-02 1.0043520662326133e+00 0.0000000000000000e+00  -3.1197756398868740e-02 1.0038447394433729e+00 0.0000000000000000e+00  -3.1263416743164421e-02 1.0032745429081760e+00 0.0000000000000000e+00  -3.1311839062730815e-02 1.0027668475999780e+00 0.0000000000000000e+00  -3.1354334386571175e-02 1.0022070642587944e+00 0.0000000000000000e+00  -3.1384366948870014e-02 1.0016712036051598e+00 0.0000000000000000e+00  -3.1403765420000063e-02 1.0011449836300954e+00 0.0000000000000000e+00  -3.1413514318194863e-02 1.0005778905458842e+00 0.0000000000000000e+00  -3.1412449215348866e-02 1.0000707724115732e+00 0.0000000000000000e+00  -3.1400188519821882e-02 9.9949909324439390e-01 0.0000000000000000e+00  -3.1379053107102567e-02 9.9898296682634624e-01 0.0000000000000000e+00  -3.1346146483418227e-02 9.9843489463887924e-01 0.0000000000000000e+00  -3.1302377361339589e-02 9.9788607428761367e-01 0.0000000000000000e+00  -3.1251624459905390e-02 9.9737284156129957e-01 0.0000000000000000e+00  -3.1184296443609913e-02 9.9680443444503675e-01 0.0000000000000000e+00  -3.1114943354594669e-02 9.9630157418841880e-01 0.0000000000000000e+00  -3.1026849577698298e-02 9.9574167407215985e-01 0.0000000000000000e+00  -3.0934647362923333e-02 9.9522137365395302e-01 0.0000000000000000e+00  -3.0831311265587802e-02 9.9469576481693234e-01 0.0000000000000000e+00  -3.0712062755689842e-02 9.9414553400812988e-01 0.0000000000000000e+00  -3.0594677966627744e-02 9.9364916812500637e-01 0.0000000000000000e+00  -3.0451880506275369e-02 9.9309265854778972e-01 0.0000000000000000e+00  -3.0314919537168281e-02 9.9259805050096339e-01 0.0000000000000000e+00  -3.0155852873625742e-02 9.9206260186273376e-01 0.0000000000000000e+00  -2.9990998134642469e-02 9.9154413904865524e-01 0.0000000000000000e+00  -2.9823076674896237e-02 9.9104796859875577e-01 0.0000000000000000e+00  -2.9629448426555370e-02 9.9050952602690745e-01 0.0000000000000000e+00  -2.9448235077480810e-02 9.9003358672306496e-01 0.0000000000000000e+00  -2.9234327650171747e-02 9.8950166225173142e-01 0.0000000000000000e+00  -2.9029853538755195e-02 9.8901950328849519e-01 0.0000000000000000e+00  -2.8807076083360618e-02 9.8851976