<?xml version="1.0"?>
<VTKFile type="UnstructuredGrid"  version="0.1"  >
<UnstructuredGrid>
<Piece  NumberOfPoints="4279" NumberOfCells="6774">
<Points>
<DataArray  type="Float64"  NumberOfComponents="3"  format="ascii">0 0.01 0  10 0.01 0  0 1.013256116745685 0  10 1.013256116745685 0  0.007129524987038337 0.009997491741717768 0  0.01258064459049757 0.00999219056738478 0  0.01872173241756402 0.009982708334120727 0  0.02429919625640796 0.009970876572043954 0  0.03017238705920286 0.009955108531615313 0  0.03612352734296466 0.0099356743715591 0  0.04164979236492252 0.009914517792428084 0  0.04780928449023854 0.009887415768096998 0  0.05327287671237849 0.009860276931383746 0  0.0593436395885565 0.009826715421083503 0  0.06505608699933001 0.009791870631895848 0  0.07077243060783153 0.009753845329312128 0  0.07684085351634186 0.009710036052663748 0  0.08230528612367993 0.009667566921662384 0  0.08846525752759338 0.009616276826848907 0  0.09398926586603956 0.0095672187064786 0  0.09994377871281757 0.009511110804477986 0  0.10581288515308 0.009452550633355501 0  0.1113930001121819 0.009393893683773193 0  0.1175326299024069 0.009326020378011352 0  0.122983161250664 0.009262856809916281 0  0.1290978349347763 0.009188765415777931 0  0.1347300222736412 0.00911751981665075 0  0.1405327472005438 0.009041131768776852 0  0.1465421455697866 0.008958856277281909 0  0.1520341809431761 0.008880870879718691 0  0.1581991754706344 0.00879018143976357 0  0.1636834803794234 0.008706732874359017 0  0.1697073563005918 0.008612096527554045 0  0.1754901396361989 0.008518345936558386 0  0.1811391035120075 0.008424050210098115 0  0.1872444279222087 0.00831915423323064 0  0.1926961446341008 0.008222899998379215 0  0.198841090009393 0.008111516418624823 0  0.2044064770158165 0.008008028244452866 0  0.2102948627703611 0.007895869216798803 0  0.2162299794791283 0.007780085801116003 0  0.2217647046821167 0.007669675498109103 0  0.2279204403470532 0.007544154739747676 0  0.2333791472114919 0.007430485124751003 0  0.2394590817234977 0.0073013084386626 0  0.245152498789355 0.007177928079207972 0  0.2508861115607116 0.007051356111670669 0  0.2569419868439766 0.006915186417023598 0  0.2624099649457279 0.006790084113692359 0  0.2685711825796066 0.006646722567663751 0  0.274083748205357 0.006516341894728842 0  0.2800541704182985 0.00637292855786236 0  0.2859022845836161 0.006230279166502627 0  0.291495955429921 0.006091868246150131 0  0.2976275706217687 0.005937986548763313 0  0.3030757324287757 0.005799406374294222 0  0.3091980118239236 0.005641654227187252 0  0.3148109405089491 0.005495191514879527 0  0.3206341933715942 0.005341435282378838 0  0.3266248575896781 0.005181393525330103 0  0.3321252080346692 0.005032833254881577 0  0.3382880718234609 0.004864596209960478 0  0.3437628463580178 0.004713611578807419 0  0.3498021006600692 0.004545443593512952 0  0.3555594631656461 0.004383601001460968 0  0.3612291099056053 0.004222822711549606 0  0.3673210805066339 0.004048576418709386 0  0.3727746135437823 0.003891330909934085 0  0.3789246700786391 0.003712634483246944 0  0.3844721023230384 0.00355025746928806 0  0.3903845048135511 0.003376011435332509 0  0.3962935688476314 0.003200699755406988 0  0.4018430601204535 0.00303505085978487 0  0.4079921977692303 0.002850427660455144 0  0.4134449905916002 0.002685819499171436 0  0.4195385366679084 0.002500937932218923 0  0.425204482428441 0.002328206591247292 0  0.4309651825948974 0.00215183074136113 0  0.4370014133195289 0.001966263547608745 0  0.4424769325836848 0.00179732019881714 0  0.4486395183564056 0.001606544730410899 0  0.4541373275735043 0.001435838569361521 0  0.4601308451156257 0.001249254088784412 0  0.4659488863550298 0.001067707976620331 0  0.471564807260988 0.0008921302908496037 0  0.4776843759254726 0.0007004920228137959 0  0.4831317484445766 0.0005296836585198918 0  0.4892643513384632 0.0003372062279158936 0  0.4948528283485032 0.000161696161435303 0  0.5007056813361916 -2.216943068070812e-05 0  0.5066699093509902 -0.000209526046556915 0  0.5121845298566023 -0.0003826949545447442 0  0.5183439831944545 -0.0005759742926309219 0  0.5238088617282698 -0.0007472800272428554 0  0.5298681543527348 -0.0009369594486414562 0  0.5355929349139432 -0.001115856450691032 0  0.5412927239341832 -0.001293613669039852 0  0.5473668732672543 -0.001482588207084091 0  0.5528259073001393 -0.001651967505962102 0  0.5589819336317072 -0.001842386787779294 0  0.5645100189486582 -0.002012797049529044 0  0.5704524332663232 -0.002195301346534757 0  0.5763298911552834 -0.002375058665203144 0  0.5819006708717119 -0.002544689651648297 0  0.5880413281562127 -0.002730768313747055 0  0.5934904284812221 -0.002895042191696308 0  0.5995995320960693 -0.003078202338538874 0  0.605236779888003 -0.003246210954182579 0  0.6110299855290301 -0.003417806240976177 0  0.6170432999212266 -0.00359472323302265 0  0.6225307972792151 -0.00375505261922207 0  0.6286944373476531 -0.003933803567825084 0  0.6341794289295242 -0.004091634709336539 0  0.6401977648984302 -0.004263413669385436 0  0.6459846030577213 -0.004427148756161272 0  0.6516277670629291 -0.004585409549508515 0  0.6577342305863492 -0.004755038487876419 0  0.6631843111407589 -0.004904958327357115 0  0.6693271588517591 -0.005072208653571043 0  0.6748942591145469 -0.005222152905474348 0  0.6807781354428797 -0.005378892074409919 0  0.6867158102497221 -0.005535201343768038 0  0.6922478556369909 -0.005679100421160843 0  0.6984036264198542 -0.005837205328254034 0  0.7038624132928571 -0.005975584427524931 0  0.7099402809449575 -0.006127588021236129 0  0.7156361945945205 -0.006268012368771779 0  0.7213667017809595 -0.006407263887957157 0  0.7274241898103784 -0.006552202568912044 0  0.7328913375361901 -0.006680980644346233 0  0.7390522654079078 -0.006823736587757829 0  0.7445663161830813 -0.006949337256267011 0  0.7505345306161221 -0.007082931996795786 0  0.7563856967966242 -0.007211490056377221 0  0.7619775509571868 -0.007332073958440476 0  0.7681106054434813 -0.007461725199742056 0  0.7735594228940573 -0.007574589702563127 0  0.7796809699364847 -0.007698739982391196 0  0.7852974086111042 -0.007810142587226769 0  0.7911178568436495 -0.007923025648348906 0  0.797112403703894 -0.008036515862006795 0  0.8026119630288198 -0.008138129173272899 0  0.8087760180262171 -0.008249131188213875 0  0.814253500572072 -0.008345174877796967 0  0.8202905515677629 -0.008448166667805387 0  0.8260544286221699 -0.008543663134562481 0  0.831720415905675 -0.008634807324656511 0  0.8378167080097026 -0.008729817306667463 0  0.8432709709919499 -0.008812108559864256 0  0.8494209576248264 -0.008901791974276371 0  0.8549745826348545 -0.008979924427376591 0  0.8608814329347291 -0.009060026011188804 0  0.8667998142885592 -0.009137155111096256 0  0.8723460990452367 -0.009206568509458774 0  0.8784989383774584 -0.009280301817794542 0  0.8839552890388401 -0.009342788637451834 0  0.8900456692707091 -0.009409293585850673 0  0.8957233874467343 -0.009468190513990782 0  0.9014754209053449 -0.009524786393944277 0  0.9075213579987256 -0.009580921173179099 0  0.9129954731058688 -0.009628765913494807 0  0.9191593188847452 -0.009679229788646495 0  0.9246655330424429 -0.009721240864333262 0  0.9306503084472221 -0.009763603884533442 0  0.9364847200361547 -0.009801580348484516 0  0.9420914259676206 -0.009834972127394636 0  0.948219177636862 -0.009867976960504428 0  0.9536688877131657 -0.009894257783109666 0  0.9597979104438458 -0.009920349306153329 0  0.9654020314719589 -0.009940987600901847 0  0.9712398170272581 -0.009959209624459757 0  0.9772219132298864 -0.009974407121723252 0  0.9827297975109929 -0.009985285083248089 0  0.9888934840407251 -0.009993913310034224 0  0.9943667421923366 -0.009998434045983932 0  1.000414962337846 -0.009999991502249178 0  1.00616395254491 -0.009998125110441144 0  1.011844857354635 -0.009993077234903055 0  1.017933801412069 -0.009984132829796667 0  1.023390946643176 -0.00997301205183276 0  1.029544679732296 -0.009956955598792184 0  1.035089558108845 -0.009939300412459717 0  1.041010936359372 -0.009917116481575694 0  1.04691554237944 -0.00989157814857561 0  1.052471258615448 -0.009864440751261633 0  1.05862104751389 -0.009830897850136421 0  1.064075481579663 -0.009798076706746352 0  1.070173358231585 -0.009757978136698224 0  1.075837941143087 -0.00971752009646258 0  1.081604377355612 -0.009673173917302162 0  1.087640686528322 -0.009623351755525641 0  1.093119387704205 -0.009575135453199036 0  1.099284093826516 -0.009517491101966447 0  1.104783734376909 -0.009463052176492596 0  1.110779897618174 -0.009400480030121557 0  1.116599992234411 -0.00933655469875222 0  1.122217899723542 -0.009271889359757672 0  1.128339818747432 -0.009198135031144493 0  1.133789446190431 -0.00912961705214143 0  1.139923317158062 -0.009049295973540348 0  1.145515844317945 -0.008973134373133167 0  1.151367773813766 -0.008890475161473248 0  1.157336906671575 -0.008803064948780913 0  1.16285160438384 -0.008719557366803981 0  1.16901331600552 -0.008623157866544266 0  1.174481522907442 -0.00853490108265173 0  1.180539122189597 -0.008434191931863186 0  1.186271617394136 -0.008336073959344166 0  1.191966996821913 -0.008235914041393521 0  1.198046448076202 -0.008126091334838595 0  1.203505695906331 -0.008024945109277802 0  1.209661806077474 -0.007908057515838151 0  1.21519584913737 -0.007800455577732041 0  1.221132109188887 -0.00768241304184519 0  1.227019087412133 -0.007562711583992629 0  1.232585135446325 -0.007447155722966398 0  1.238729389023077 -0.007316953404904543 0  1.244180486899644 -0.007199156086382225 0  1.250286093435722 -0.007064709646262071 0  1.255932842016573 -0.006938052500145445 0  1.261716857103797 -0.006806053534187844 0  1.26773845151126 -0.006666245775332091 0  1.273222687278595 -0.006536836953056475 0  1.279386853652711 -0.00638906998029936 0  1.284876650734994 -0.006255450389977176 0  1.290887326898431 -0.00610702037198264 0  1.296685536664392 -0.00596177282270944 0  1.30231949087952 -0.005818744638503708 0  1.308431215520824
[...]
<PointData  Vectors="Velocity"> 
<DataArray  type="Float64"  Name="Velocity"  NumberOfComponents="3" format="ascii">-6.9456004435854379e-10 9.7039118676949176e-01 0.0000000000000000e+00  -6.9456004435854379e-10 9.7039118676949176e-01 0.0000000000000000e+00  7.1527914062906415e-06 -2.5848264802062676e-02 0.0000000000000000e+00  7.1527914062906415e-06 -2.5848264802062676e-02 0.0000000000000000e+00  6.8276949398422924e-04 9.7039837325147549e-01 0.0000000000000000e+00  1.2046096746593992e-03 9.7041356190806793e-01 0.0000000000000000e+00  1.7921087052351534e-03 9.7044073059854685e-01 0.0000000000000000e+00  2.3251657526033457e-03 9.7047463240050968e-01 0.0000000000000000e+00  2.8857803496058500e-03 9.7051981478364868e-01 0.0000000000000000e+00  3.4529207767036514e-03 9.7057550524494074e-01 0.0000000000000000e+00  3.9785893222811950e-03 9.7063613546815963e-01 0.0000000000000000e+00  4.5631956750116463e-03 9.7071380996380452e-01 0.0000000000000000e+00  5.0804552003062492e-03 9.7079159647849145e-01 0.0000000000000000e+00  5.6535890105359199e-03 9.7088780115289230e-01 0.0000000000000000e+00  6.1911842027869259e-03 9.7098769529692308e-01 0.0000000000000000e+00  6.7273230018094999e-03 9.7109672000401137e-01 0.0000000000000000e+00  7.2943108827175224e-03 9.7122234431446641e-01 0.0000000000000000e+00  7.8027987867649124e-03 9.7134414216020548e-01 0.0000000000000000e+00  8.3734814645246292e-03 9.7149125981795936e-01 0.0000000000000000e+00  8.8828122863799704e-03 9.7163199780810316e-01 0.0000000000000000e+00  9.4290913116198069e-03 9.7179298652641499e-01 0.0000000000000000e+00  9.9645787129255363e-03 9.7196104195431521e-01 0.0000000000000000e+00  1.0470823863070322e-02 9.7212940662857739e-01 0.0000000000000000e+00  1.1024416052490171e-02 9.7232426406634986e-01 0.0000000000000000e+00  1.1512727937097931e-02 9.7250563745565177e-01 0.0000000000000000e+00  1.2056844862152008e-02 9.7271843646908418e-01 0.0000000000000000e+00  1.2554418857549089e-02 9.7292310938856619e-01 0.0000000000000000e+00  1.3063277842349815e-02 9.7314260654424345e-01 0.0000000000000000e+00  1.3586051289460601e-02 9.7337907988914252e-01 0.0000000000000000e+00  1.4059923856361459e-02 9.7360327991521411e-01 0.0000000000000000e+00  1.4587262320733076e-02 9.7386407270177600e-01 0.0000000000000000e+00  1.5052142791682063e-02 9.7410410935435832e-01 0.0000000000000000e+00  1.5558003098409191e-02 9.7437640359563082e-01 0.0000000000000000e+00  1.6038780386579046e-02 9.7464623026467578e-01 0.0000000000000000e+00  1.6503708444319278e-02 9.7491770735802641e-01 0.0000000000000000e+00  1.7000786058641155e-02 9.7521979774053069e-01 0.0000000000000000e+00  1.7439759262676401e-02 9.7549708871050989e-01 0.0000000000000000e+00  1.7928861748790811e-02 9.7581807129546883e-01 0.0000000000000000e+00  1.8366487139940817e-02 9.7611640350392337e-01 0.0000000000000000e+00  1.8823834649032645e-02 9.7643984220581259e-01 0.0000000000000000e+00  1.9278750124123587e-02 9.7677385353346757e-01 0.0000000000000000e+00  1.9697356784947016e-02 9.7709248016505712e-01 0.0000000000000000e+00  2.0156413039129385e-02 9.7745484948869477e-01 0.0000000000000000e+00  2.0557610453093522e-02 9.7778313037741627e-01 0.0000000000000000e+00  2.0997817780100347e-02 9.7815634060695411e-01 0.0000000000000000e+00  2.1403550662139725e-02 9.7851294893791729e-01 0.0000000000000000e+00  2.1805669488953506e-02 9.7887892855037217e-01 0.0000000000000000e+00  2.2223187424816788e-02 9.7927282483386091e-01 0.0000000000000000e+00  2.2593696861545692e-02 9.7963485749207857e-01 0.0000000000000000e+00  2.3003663755860243e-02 9.8004991017878595e-01 0.0000000000000000e+00  2.3363615261105895e-02 9.8042754714123048e-01 0.0000000000000000e+00  2.3746003597565814e-02 9.8084311423061687e-01 0.0000000000000000e+00  2.4112932808320827e-02 9.8125665724207523e-01 0.0000000000000000e+00  2.4456703753429378e-02 9.8165809538702231e-01 0.0000000000000000e+00  2.4825327761844731e-02 9.8210461369227042e-01 0.0000000000000000e+00  2.5145551872798835e-02 9.8250692011855156e-01 0.0000000000000000e+00  2.5497061238579907e-02 9.8296510332539555e-01 0.0000000000000000e+00  2.5811461443574581e-02 9.8339070651111915e-01 0.0000000000000000e+00  2.6129577242212428e-02 9.8383772019797144e-01 0.0000000000000000e+00  2.6448148917312432e-02 9.8430324294418947e-01 0.0000000000000000e+00  2.6732786568280317e-02 9.8473558476782297e-01 0.0000000000000000e+00  2.7042653567809605e-02 9.8522544193741746e-01 0.0000000000000000e+00  2.7309796386903784e-02 9.8566529270453962e-01 0.0000000000000000e+00  2.7595497191753141e-02 9.8615545516266456e-01 0.0000000000000000e+00  2.7859014226864619e-02 9.8662743360987126e-01 0.0000000000000000e+00  2.8109948933392775e-02 9.8709655534023488e-01 0.0000000000000000e+00  2.8370028285401843e-02 9.8760525037320301e-01 0.0000000000000000e+00  2.8594357355368163e-02 9.8806456010229338e-01 0.0000000000000000e+00  2.8837609496935201e-02 9.8858681464459308e-01 0.0000000000000000e+00  2.9048109947712689e-02 9.8906163906142563e-01 0.0000000000000000e+00  2.9263075812863481e-02 9.8957144979009803e-01 0.0000000000000000e+00  2.9468131667791261e-02 9.9008467094764840e-01 0.0000000000000000e+00  2.9651747003497219e-02 9.9056987571052213e-01 0.0000000000000000e+00  2.9844954239905224e-02 9.9111096909334184e-01 0.0000000000000000e+00  3.0007215503063470e-02 9.9159367804107856e-01 0.0000000000000000e+00  3.0178376642587382e-02 9.9213614870516109e-01 0.0000000000000000e+00  3.0327829946943191e-02 9.9264326751767029e-01 0.0000000000000000e+00  3.0470156485686885e-02 9.9316138330438342e-01 0.0000000000000000e+00  3.0608789399101714e-02 9.9370682346606842e-01 0.0000000000000000e+00  3.0725204081593377e-02 9.9420368998635866e-01 0.0000000000000000e+00  3.0845529764406399e-02 9.9476509954588299e-01 0.0000000000000000e+00  3.0943268484177826e-02 9.9526774988158095e-01 0.0000000000000000e+00  3.1039448212879676e-02 9.9581747758516459e-01 0.0000000000000000e+00  3.1122412808807291e-02 9.9635268620457140e-01 0.0000000000000000e+00  3.1192732897139173e-02 9.9687060706879105e-01 0.0000000000000000e+00  3.1258408183730144e-02 9.9743624715473522e-01 0.0000000000000000e+00  3.1307217821086232e-02 9.9794070780527289e-01 0.0000000000000000e+00  3.1351260807845775e-02 9.9850950870243071e-01 0.0000000000000000e+00  3.1381301427236295e-02 9.9902848662712429e-01 0.0000000000000000e+00  3.1402417642092395e-02 9.9957249645395296e-01 0.0000000000000000e+00  3.1413023846156726e-02 1.0001271770767042e+00 0.0000000000000000e+00  3.1413008677472085e-02 1.0006401624495407e+00 0.0000000000000000e+00  3.1401818905817801e-02 1.0012130728044650e+00 0.0000000000000000e+00  3.1382007186193890e-02 1.0017211593950119e+00 0.0000000000000000e+00  3.1349164620554121e-02 1.0022840801130053e+00 0.0000000000000000e+00  3.1307622901527998e-02 1.0028153293447666e+00 0.0000000000000000e+00  3.1256112095875255e-02 1.0033435103743142e+00 0.0000000000000000e+00  3.1190071298333212e-02 1.0039053670560050e+00 0.0000000000000000e+00  3.1120910169227755e-02 1.0044092651821630e+00 0.0000000000000000e+00  3.1031787081076147e-02 1.0049761004535727e+00 0.0000000000000000e+00  3.0941711694349804e-02 1.0054836821421351e+00 0.0000000000000000e+00  3.0834301981620290e-02 1.0060276092665086e+00 0.0000000000000000e+00  3.0717299066735010e-02 1.0065636756673668e+00 0.0000000000000000e+00  3.0596539959809321e-02 1.0070698429088627e+00 0.0000000000000000e+00  3.0452333739918732e-02 1.0076254227533501e+00 0.0000000000000000e+00  3.0314653625141366e-02 1.0081161897082416e+00 0.0000000000000000e+00  3.0149476089720417e-02 1.0086637002879055e+00 0.0000000000000000e+00  2.9986941468563129e-02 1.0091662189267838e+00 0.0000000000000000e+00  2.9809839719242670e-02 1.0096797612545489e+00 0.0000000000000000e+00  2.9615256144609803e-02 1.0102095427524982e+00 0.0000000000000000e+00  2.9428177785289132e-02 1.0106899264386566e+00 0.0000000000000000e+00  2.9207281384974547e-02 1.0112258155236005e+00 0.0000000000000000e+00  2.9001180672229353e-02 1.0116992594133030e+00 0.0000000000000000e+00  2.8764783588807991e-02 1.0122148305879062e+00 0.0000000000000000e+00  2.8527419796037630e-02 1.0127065398947803e+00 0.0000000000000000e+00  2.8286520737937651e-02 1.0131820718180902e+00 0.0000000000000000e+00  2.8015429186381946e-02 1.0136920473862192e+00 0.0000000000000000e+00  2.7764408786662552e-02 1.0141430143857642e+00 0.0000000000000000e+00  2.7471303571915701e-02 1.0146463860577348e+00 0.0000000000000000e+00  2.7196441714257804e-02 1.0150979176708879e+00 0.0000000000000000e+00  2.6896480588352940e-02 1.0155701591404589e+00 0.0000000000000000e+00  2.6584022183141067e-02 1.0160413574993108e+00 0.0000000000000000e+00  2.6284181869662502e-02 1.0164753684841110e+00 0.0000000000000000e+00  2.5940740089363611e-02 1.0169524737118234e+00 0.0000000000000000e+00  2.5627647658814579e-02 1.0173702665341045e+00 0.0000000000000000e+00  2.5269721266046527e-02 1.0178294225763080e+00 0.0000000000000000e+00  2.4925468854079594e-02 1.0182538152672789e+00 0.0000000000000000e+00  2.4570634461353224e-02 1.0186748670094052e+00 0.0000000000000000e+00  2.4186402070410409e-02 1.0191133296128994e+00 0.0000000000000000e+00  2.3831652995687541e-02 1.0195030870498951e+00 0.0000000000000000e+00  2.3422976862602467e-02 1.0199353531011042e+00 0.0000000000000000e+00  2.3049315356814089e-02 1.0203158500087621e+00 0.0000000000000000e+00  2.2636608085891425e-02 1.0207207453006486e+00 0.0000000000000000e+00  2.2223784181225163e-02 1.0211105517254289e+00 0.0000000000000000e+00  2.1821791929900764e-02 1.0214763378445471e+00 0.0000000000000000e+00  2.1372650922000653e-02 1.0218698002823687e+00 0.0000000000000000e+00  2.0966517684564000e-02 1.0222124627104794e+00 0.0000000000000000e+00  2.0502430287073718e-02 1.0225895438567107e+00 0.0000000000000000e+00  2.0069504827618410e-02 1.0229280456349961e+00 0.0000000000000000e+00  1.9613813245282191e-02 1.0232711798153920e+00 0.0000000000000000e+00  1.9137152187484140e-02 1.0236162951631622e+00 0.0000000000000000e+00  1.8693448326020195e-02 1.0239254088208460e+00 0.0000000000000000e+00  1.8189027734602861e-02 1.0242632092479684e+00 0.0000000000000000e+00  1.7734645509895432e-02 1.0245555944913067e+00 0.0000000000000000e+00  1.7227312056211867e-02 1.0248692399819290e+00 0.0000000000000000e+00  1.6736719974670661e-02 1.0251601599520361e+00 0.0000000000000000e+00  1.6248704342748655e-02 1.0254379123570061e+00 0.0000000000000000e+00  1.5717439086910107e-02 1.0257275394629128e+00 0.0000000000000000e+00  1.5236855113508731e-02 1.0259784722370655e+00 0.0000000000000000e+00  1.4689188679492347e-02 1.0262520284279257e+00 0.0000000000000000e+00  1.4189536960646270e-02 1.0264904217500095e+00 0.0000000000000000e+00  1.3652993569895031e-02 1.0267348908023426e+00 0.0000000000000000e+00  1.3110307048770638e-02 1.0269703522920430e+00 0.0000000000000000e+00  1.2597288302437776e-02 1.0271823133641198e+00 0.0000000000000000e+00  1.2023330615902047e-02 1.0274075226354078e+00 0.0000000000000000e+00  1.1510266999857459e-02 1.0275984265835656e+00 0.0000000000000000e+00  1.0933268110990890e-02 1.0278016518890973e+00 0.0000000000000000e+00  1.0391451170866458e-02 1.0279816681924707e+00 0.0000000000000000e+00  9.8388865996052524e-03 1.0281546868604492e+00 0.0000000000000000e+00  9.2543360615170243e-03 1.0283263297535177e+00 0.0000000000000000e+00  8.7219401256124970e-03 1.0284726505947683e+00 0.0000000000000000e+00  8.1191195767735241e-03 1.0286270083179549e+00 0.0000000000000000e+00  7.5778128045325098e-03 1.0287555319348904e+00 0.0000000000000000e+00  6.9866675170400768e-03 1.0288851512578157e+00 0.0000000000000000e+00  6.4077898116792929e-03 1.0290013651069925e+00 0.0000000000000000e+00  5.8492979793396257e-03 1.0291035621442466e+00 0.0000000000000000e+00  5.2366489990435154e-03 1.0292045866744592e+00 0.0000000000000000e+00  4.6900120544863828e-03 1.0292850381379635e+00 0.0000000000000000e+00  4.0734523657112538e-03 1.0293649172049373e+00 0.0000000000000000e+00  3.5082541276565964e-03 1.0294281065571624e+00 0.0000000000000000e+00  2.9182342213580677e-03 1.0294839018001429e+00 0.0000000000000000e+00  2.3125205135384264e-03 1.0295304386575619e+00 0.0000000000000000e+00  1.7540314936621791e-03 1.0295637499690551e+00 0.0000000000000000e+00  1.1283759822497922e-03 1.0295901729655541e+00 0.0000000000000000e+00  5.7241008014409121e-04 1.0296040176045784e+00 0.0000000000000000e+00  -4.2167473185171606e-05 1.0296087872591331e+00 0.0000000000000000e+00  -6.2632683692239886e-04 1.0296030715208753e+00 0.0000000000000000e+00  -1.2033508208151452e-03 1.0295876126019989e+00 0.0000000000000000e+00  -1.8213527289928002e-03 1.0295602213975676e+00 0.0000000000000000e+00  -2.3746186549756030e-03 1.0295261666448066e+00 0.0000000000000000e+00  -2.9975883973718752e-03 1.0294769999283226e+00 0.0000000000000000e+00  -3.5578825257434553e-03 1.0294229406912101e+00 0.0000000000000000e+00  -4.1549193310068018e-03 1.0293550195336143e+00 0.0000000000000000e+00  -4.7487054872729006e-03 1.0292768346400427e+00 0.0000000000000000e+00  -5.3057865861022169e-03 1.0291937621657472e+00 0.0000000000000000e+00  -5.9203790708078682e-03 1.0290910920333507e+00 0.0000000000000000e+00  -6.4634774955413792e-03 1.0289906427368241e+00 0.0000000000000000e+00  -7.0681895994110927e-03 1.0288679367171394e+00 0.0000000000000000e+00  -7.6274137256243952e-03 1.0287441484109552e+00 0.0000000000000000e+00  -8.1939933183866401e-03 1.0286084834482905e+00 0.0000000000000000e+00  -8.7839585574499141e-03 1.0284560915164123e+00 0.0000000000000000e+00  -9.3164626420137921e-03 1.0283086371865240e+00 0.0000000000000000e+00  -9.9120549288528471e-03 1.0281323827779101e+00 0.0000000000000000e+00  -1.0439993571665748e-02 1.0279659616709580e+00 0.0000000000000000e+00  -1.1011742559536332e-02 1.0277747165810613e+00 0.0000000000000000e+00  -1.1562652198123340e-02 1.0275793792253141e+00 0.0000000000000000e+00  -1.2090455234608721e-02 1.0273818251014748e+00 0.0000000000000000e+00  -1.2660963439592525e-02 1.0271565582813569e+00 0.0000000000000000e+00  -1.3164563463604102e-02 1.0269473368282744e+00 0.0000000000000000e+00  -1.3726399957047435e-02 1.0267021387390598e+00 0.0000000000000000e+00  -1.4233855688803346e-02 1.0264697018998434e+00 0.0000000000000000e+00  -1.4759763625351982e-02 1.0262175047299091e+00 0.0000000000000000e+00  -1.5290659868064112e-02 1.0259508915076414e+00 0.0000000000000000e+00  -1.5775993813701084e-02 1.0256962585337848e+00 0.0000000000000000e+00  -1.6312220969145388e-02 1.0254024071667416e+00 0.0000000000000000e+00  -1.6782595839589153e-02 1.0251334631603373e+00 0.0000000000000000e+00  -1.7297437021695283e-02 1.0248266749340491e+00 0.0000000000000000e+00  -1.7778450630799348e-02 1.0245278843981502e+00 0.0000000000000000e+00  -1.8250221591794995e-02 1.0242229804012088e+00 0.0000000000000000e+00  -1.8746884166002571e-02 1.0238887833446979e+00 0.0000000000000000e+00  -1.9186633239341982e-02 1.0235811027253816e+00 0.0000000000000000e+00  -1.9675263337321319e-02 1.0232256730414717e+00 0.0000000000000000e+00  -2.0107796801981360e-02 1.0228986063018426e+00 0.0000000000000000e+00  -2.0564551544813583e-02 1.0225399447145813e+00 0.0000000000000000e+00  -2.1009950537056735e-02 1.0221763933383698e+00 0.0000000000000000e+00  -2.1424037383892727e-02 1.0218255766142481e+00 0.0000000000000000e+00  -2.1873011190947960e-02 1.0214304623493098e+00 0.0000000000000000e+00  -2.2264083589549236e-02 1.0210731456644118e+00 0.0000000000000000e+00  -2.2693859166137108e-02 1.0206655058799516e+00 0.0000000000000000e+00  -2.3083442315596624e-02 1.0202816572796636e+00 0.0000000000000000e+00  -2.3474503690016434e-02 1.0198817975938328e+00 0.0000000000000000e+00  -2.3872897085622315e-02 1.0194584819829415e+00 0.0000000000000000e+00  -2.4227870931602009e-02 1.0190668356965362e+00 0.0000000000000000e+00  -2.4617772287764052e-02 1.0186198434609874e+00 0.0000000000000000e+00  -2.4956808933081526e-02 1.0182158422114802e+00 0.0000000000000000e+00  -2.5319030891563656e-02 1.0177672796597357e+00 0.0000000000000000e+00  -2.5659433956562609e-02 1.0173285573832269e+00 0.0000000000000000e+00  -2.5981615542346018e-02 1.0168967529325916e+00 0.0000000000000000e+00  -2.6321441189940915e-02 1.0164223569997435e+00 0.0000000000000000e+00  -2.6615844028748576e-02 1.0159942809335616e+00 0.0000000000000000e+00  -2.6937751567232132e-02 1.0155063887514295e+00 0.0000000000000000e+00  -2.7220951748685166e-02 1.0150584042116060e+00 0.0000000000000000e+00  -2.7509848967435066e-02 1.0145815287878994e+00 0.0000000000000000e+00  -2.7792460730354941e-02 1.0140935606493846e+00 0.0000000000000000e+00  -2.8045952107199987e-02 1.0136358711566209e+00 0.0000000000000000e+00  -2.8318060095615830e-02 1.0131210812058631e+00 0.0000000000000000e+00  -2.8550158315655865e-02 1.0126604808716921e+00 0.0000000000000000e+00  -2.8797958366636525e-02 1.0121441119132517e+00 0.0000000000000000e+00  -2.9020962016921229e-02 1.0116548376454249e+00 0.0000000000000000e+00  -2.9234780783164306e-02 1.0111607928531259e+00 0.0000000000000000e+00  -2.9450814966694310e-02 1.0106331682769130e+00 0.0000000000000000e+00  -2.9636035080887028e-02 1.0101545226196669e+00 0.0000000000000000e+00  -2.9834029955831301e-02 1.0096115008165696e+00 0.0000000000000000e+00  -3.0001669342350459e-02 1.0091220133643888e+00 0.0000000000000000e+00  -3.0172280350123884e-02 1.0085904945045547e+00 0.0000000000000000e+00  -3.0329464700352280e-02 1.0080650241174625e+00 0.0000000000000000e+00  -3.0469455744539069e-02 1.0075618598708982e+00 0.0000000000000000e+00  -3.0612203879653004e-02 1.0070064967397532e+00 0.0000000000000000e+00  -3.0729226660029214e-02 1.0065112812138322e+00 0.0000000000000000e+00  -3.0849680778729297e-02 1.0059531297722335e+00 0.0000000000000000e+00  -3.0950149734882131e-02 1.0054383733395016e+00 0.0000000000000000e+00  -3.1043694119392284e-02 1.0049046134333397e+00 0.0000000000000000e+00  -3.1129237890581796e-02 1.0043520661377323e+00 0.0000000000000000e+00  -3.1197759403815917e-02 1.0038447393914545e+00 0.0000000000000000e+00  -3.1263419090943621e-02 1.0032745428675562e+00 0.0000000000000000e+00  -3.1311840323142111e-02 1.0027668475810321e+00 0.0000000000000000e+00  -3.1354336628002348e-02 1.0022070642339600e+00 0.0000000000000000e+00  -3.1384368786765579e-02 1.0016712035841449e+00 0.0000000000000000e+00  -3.1403769054949598e-02 1.0011449836139743e+00 0.0000000000000000e+00  -3.1413516378672415e-02 1.0005778905124521e+00 0.0000000000000000e+00  -3.1412450968795795e-02 1.0000707723630524e+00 0.0000000000000000e+00  -3.1400189743275131e-02 9.9949909322253783e-01 0.0000000000000000e+00  -3.1379055123813060e-02 9.9898296678096854e-01 0.0000000000000000e+00  -3.1346148004215993e-02 9.9843489464889124e-01 0.0000000000000000e+00  -3.1302377897605795e-02 9.9788607431061693e-01 0.0000000000000000e+00  -3.1251625432296919e-02 9.9737284162221640e-01 0.0000000000000000e+00  -3.1184297990842571e-02 9.9680443446068479e-01 0.0000000000000000e+00  -3.1114945684352999e-02 9.9630157416572851e-01 0.0000000000000000e+00  -3.1026850932056243e-02 9.9574167405644598e-01 0.0000000000000000e+00  -3.0934648394768952e-02 9.9522137366347974e-01 0.0000000000000000e+00  -3.0831312435094665e-02 9.9469576482709987e-01 0.0000000000000000e+00  -3.0712064366383650e-02 9.9414553398301253e-01 0.0000000000000000e+00  -3.0594679120172268e-02 9.9364916814487692e-01 0.0000000000000000e+00  -3.0451880662988443e-02 9.9309265859431528e-01 0.0000000000000000e+00  -3.0314922674656856e-02 9.9259805037729198e-01 0.0000000000000000e+00  -3.0155860592588700e-02 9.9206260159865323e-01 0.0000000000000000e+00  -2.9990998367475905e-02 9.9154413904771854e-01 0.0000000000000000e+00  -2.9823079021885097e-02 9.9104796851557209e-01 0.0000000000000000e+00  -2.9629443947487285e-02 9.9050952626230337e-01 0.0000000000000000e+00  -2.9448234465128845e-02 9.9003358679871911e-01 0.0000000000000000e+00  -2.9234325437913267e-02 9.8950166244230642e-01 0.0000000000000000e+00  -2.9029851439299183e-02 9.8901950349013024e-01 0.0000000000000000e+00  -2.8807080992139130e-02 9.8851976