<?xml version="1.0"?>
<VTKFile type="UnstructuredGrid"  version="0.1"  >
<UnstructuredGrid>
<Piece  NumberOfPoints="4268" NumberOfCells="6752">
<Points>
<DataArray  type="Float64"  NumberOfComponents="3"  format="ascii">0 0.01 0  10 0.01 0  0 1.028869273702567 0  10 1.028869273702567 0  0.007129524987038337 0.009997491741717768 0  0.01258064459049757 0.00999219056738478 0  0.01872173241756402 0.009982708334120727 0  0.02429919625640796 0.009970876572043954 0  0.03017238705920286 0.009955108531615313 0  0.03612352734296466 0.0099356743715591 0  0.04164979236492252 0.009914517792428084 0  0.04780928449023854 0.009887415768096998 0  0.05327287671237849 0.009860276931383746 0  0.0593436395885565 0.009826715421083503 0  0.06505608699933001 0.009791870631895848 0  0.07077243060783153 0.009753845329312128 0  0.07684085351634186 0.009710036052663748 0  0.08230528612367993 0.009667566921662384 0  0.08846525752759338 0.009616276826848907 0  0.09398926586603956 0.0095672187064786 0  0.09994377871281757 0.009511110804477986 0  0.10581288515308 0.009452550633355501 0  0.1113930001121819 0.009393893683773193 0  0.1175326299024069 0.009326020378011352 0  0.122983161250664 0.009262856809916281 0  0.1290978349347763 0.009188765415777931 0  0.1347300222736412 0.00911751981665075 0  0.1405327472005438 0.009041131768776852 0  0.1465421455697866 0.008958856277281909 0  0.1520341809431761 0.008880870879718691 0  0.1581991754706344 0.00879018143976357 0  0.1636834803794234 0.008706732874359017 0  0.1697073563005918 0.008612096527554045 0  0.1754901396361989 0.008518345936558386 0  0.1811391035120075 0.008424050210098115 0  0.1872444279222087 0.00831915423323064 0  0.1926961446341008 0.008222899998379215 0  0.198841090009393 0.008111516418624823 0  0.2044064770158165 0.008008028244452866 0  0.2102948627703611 0.007895869216798803 0  0.2162299794791283 0.007780085801116003 0  0.2217647046821167 0.007669675498109103 0  0.2279204403470532 0.007544154739747676 0  0.2333791472114919 0.007430485124751003 0  0.2394590817234977 0.0073013084386626 0  0.245152498789355 0.007177928079207972 0  0.2508861115607116 0.007051356111670669 0  0.2569419868439766 0.006915186417023598 0  0.2624099649457279 0.006790084113692359 0  0.2685711825796066 0.006646722567663751 0  0.274083748205357 0.006516341894728842 0  0.2800541704182985 0.00637292855786236 0  0.2859022845836161 0.006230279166502627 0  0.291495955429921 0.006091868246150131 0  0.2976275706217687 0.005937986548763313 0  0.3030757324287757 0.005799406374294222 0  0.3091980118239236 0.005641654227187252 0  0.3148109405089491 0.005495191514879527 0  0.3206341933715942 0.005341435282378838 0  0.3266248575896781 0.005181393525330103 0  0.3321252080346692 0.005032833254881577 0  0.3382880718234609 0.004864596209960478 0  0.3437628463580178 0.004713611578807419 0  0.3498021006600692 0.004545443593512952 0  0.3555594631656461 0.004383601001460968 0  0.3612291099056053 0.004222822711549606 0  0.3673210805066339 0.004048576418709386 0  0.3727746135437823 0.003891330909934085 0  0.3789246700786391 0.003712634483246944 0  0.3844721023230384 0.00355025746928806 0  0.3903845048135511 0.003376011435332509 0  0.3962935688476314 0.003200699755406988 0  0.4018430601204535 0.00303505085978487 0  0.4079921977692303 0.002850427660455144 0  0.4134449905916002 0.002685819499171436 0  0.4195385366679084 0.002500937932218923 0  0.425204482428441 0.002328206591247292 0  0.4309651825948974 0.00215183074136113 0  0.4370014133195289 0.001966263547608745 0  0.4424769325836848 0.00179732019881714 0  0.4486395183564056 0.001606544730410899 0  0.4541373275735043 0.001435838569361521 0  0.4601308451156257 0.001249254088784412 0  0.4659488863550298 0.001067707976620331 0  0.471564807260988 0.0008921302908496037 0  0.4776843759254726 0.0007004920228137959 0  0.4831317484445766 0.0005296836585198918 0  0.4892643513384632 0.0003372062279158936 0  0.4948528283485032 0.000161696161435303 0  0.5007056813361916 -2.216943068070812e-05 0  0.5066699093509902 -0.000209526046556915 0  0.5121845298566023 -0.0003826949545447442 0  0.5183439831944545 -0.0005759742926309219 0  0.5238088617282698 -0.0007472800272428554 0  0.5298681543527348 -0.0009369594486414562 0  0.5355929349139432 -0.001115856450691032 0  0.5412927239341832 -0.001293613669039852 0  0.5473668732672543 -0.001482588207084091 0  0.5528259073001393 -0.001651967505962102 0  0.5589819336317072 -0.001842386787779294 0  0.5645100189486582 -0.002012797049529044 0  0.5704524332663232 -0.002195301346534757 0  0.5763298911552834 -0.002375058665203144 0  0.5819006708717119 -0.002544689651648297 0  0.5880413281562127 -0.002730768313747055 0  0.5934904284812221 -0.002895042191696308 0  0.5995995320960693 -0.003078202338538874 0  0.605236779888003 -0.003246210954182579 0  0.6110299855290301 -0.003417806240976177 0  0.6170432999212266 -0.00359472323302265 0  0.6225307972792151 -0.00375505261922207 0  0.6286944373476531 -0.003933803567825084 0  0.6341794289295242 -0.004091634709336539 0  0.6401977648984302 -0.004263413669385436 0  0.6459846030577213 -0.004427148756161272 0  0.6516277670629291 -0.004585409549508515 0  0.6577342305863492 -0.004755038487876419 0  0.6631843111407589 -0.004904958327357115 0  0.6693271588517591 -0.005072208653571043 0  0.6748942591145469 -0.005222152905474348 0  0.6807781354428797 -0.005378892074409919 0  0.6867158102497221 -0.005535201343768038 0  0.6922478556369909 -0.005679100421160843 0  0.6984036264198542 -0.005837205328254034 0  0.7038624132928571 -0.005975584427524931 0  0.7099402809449575 -0.006127588021236129 0  0.7156361945945205 -0.006268012368771779 0  0.7213667017809595 -0.006407263887957157 0  0.7274241898103784 -0.006552202568912044 0  0.7328913375361901 -0.006680980644346233 0  0.7390522654079078 -0.006823736587757829 0  0.7445663161830813 -0.006949337256267011 0  0.7505345306161221 -0.007082931996795786 0  0.7563856967966242 -0.007211490056377221 0  0.7619775509571868 -0.007332073958440476 0  0.7681106054434813 -0.007461725199742056 0  0.7735594228940573 -0.007574589702563127 0  0.7796809699364847 -0.007698739982391196 0  0.7852974086111042 -0.007810142587226769 0  0.7911178568436495 -0.007923025648348906 0  0.797112403703894 -0.008036515862006795 0  0.8026119630288198 -0.008138129173272899 0  0.8087760180262171 -0.008249131188213875 0  0.814253500572072 -0.008345174877796967 0  0.8202905515677629 -0.008448166667805387 0  0.8260544286221699 -0.008543663134562481 0  0.831720415905675 -0.008634807324656511 0  0.8378167080097026 -0.008729817306667463 0  0.8432709709919499 -0.008812108559864256 0  0.8494209576248264 -0.008901791974276371 0  0.8549745826348545 -0.008979924427376591 0  0.8608814329347291 -0.009060026011188804 0  0.8667998142885592 -0.009137155111096256 0  0.8723460990452367 -0.009206568509458774 0  0.8784989383774584 -0.009280301817794542 0  0.8839552890388401 -0.009342788637451834 0  0.8900456692707091 -0.009409293585850673 0  0.8957233874467343 -0.009468190513990782 0  0.9014754209053449 -0.009524786393944277 0  0.9075213579987256 -0.009580921173179099 0  0.9129954731058688 -0.009628765913494807 0  0.9191593188847452 -0.009679229788646495 0  0.9246655330424429 -0.009721240864333262 0  0.9306503084472221 -0.009763603884533442 0  0.9364847200361547 -0.009801580348484516 0  0.9420914259676206 -0.009834972127394636 0  0.948219177636862 -0.009867976960504428 0  0.9536688877131657 -0.009894257783109666 0  0.9597979104438458 -0.009920349306153329 0  0.9654020314719589 -0.009940987600901847 0  0.9712398170272581 -0.009959209624459757 0  0.9772219132298864 -0.009974407121723252 0  0.9827297975109929 -0.009985285083248089 0  0.9888934840407251 -0.009993913310034224 0  0.9943667421923366 -0.009998434045983932 0  1.000414962337846 -0.009999991502249178 0  1.00616395254491 -0.009998125110441144 0  1.011844857354635 -0.009993077234903055 0  1.017933801412069 -0.009984132829796667 0  1.023390946643176 -0.00997301205183276 0  1.029544679732296 -0.009956955598792184 0  1.035089558108845 -0.009939300412459717 0  1.041010936359372 -0.009917116481575694 0  1.04691554237944 -0.00989157814857561 0  1.052471258615448 -0.009864440751261633 0  1.05862104751389 -0.009830897850136421 0  1.064075481579663 -0.009798076706746352 0  1.070173358231585 -0.009757978136698224 0  1.075837941143087 -0.00971752009646258 0  1.081604377355612 -0.009673173917302162 0  1.087640686528322 -0.009623351755525641 0  1.093119387704205 -0.009575135453199036 0  1.099284093826516 -0.009517491101966447 0  1.104783734376909 -0.009463052176492596 0  1.110779897618174 -0.009400480030121557 0  1.116599992234411 -0.00933655469875222 0  1.122217899723542 -0.009271889359757672 0  1.128339818747432 -0.009198135031144493 0  1.133789446190431 -0.00912961705214143 0  1.139923317158062 -0.009049295973540348 0  1.145515844317945 -0.008973134373133167 0  1.151367773813766 -0.008890475161473248 0  1.157336906671575 -0.008803064948780913 0  1.16285160438384 -0.008719557366803981 0  1.16901331600552 -0.008623157866544266 0  1.174481522907442 -0.00853490108265173 0  1.180539122189597 -0.008434191931863186 0  1.186271617394136 -0.008336073959344166 0  1.191966996821913 -0.008235914041393521 0  1.198046448076202 -0.008126091334838595 0  1.203505695906331 -0.008024945109277802 0  1.209661806077474 -0.007908057515838151 0  1.21519584913737 -0.007800455577732041 0  1.221132109188887 -0.00768241304184519 0  1.227019087412133 -0.007562711583992629 0  1.232585135446325 -0.007447155722966398 0  1.238729389023077 -0.007316953404904543 0  1.244180486899644 -0.007199156086382225 0  1.250286093435722 -0.007064709646262071 0  1.255932842016573 -0.006938052500145445 0  1.261716857103797 -0.006806053534187844 0  1.26773845151126 -0.006666245775332091 0  1.273222687278595 -0.006536836953056475 0  1.279386853652711 -0.00638906998029936 0  1.284876650734994 -0.006255450389977176 0  1.290887326898431 -0.00610702037198264 0  1.296685536664392 -0.00596177282270944 0  1.30231949087952 -0.005818744638503708 0  1.308431215520824
[...]
<PointData  Vectors="Velocity"> 
<DataArray  type="Float64"  Name="Velocity"  NumberOfComponents="3" format="ascii">3.6488118872995485e-11 9.7039118677807223e-01 0.0000000000000000e+00  3.6488118872995485e-11 9.7039118677807223e-01 0.0000000000000000e+00  7.6236262247839658e-06 -3.8840593782011872e-02 0.0000000000000000e+00  7.6236262247839658e-06 -3.8840593782011872e-02 0.0000000000000000e+00  6.8276941255886387e-04 9.7039837325181011e-01 0.0000000000000000e+00  1.2046099909953827e-03 9.7041356190772099e-01 0.0000000000000000e+00  1.7921088397165087e-03 9.7044073059999891e-01 0.0000000000000000e+00  2.3251659743483799e-03 9.7047463240328224e-01 0.0000000000000000e+00  2.8857804193016205e-03 9.7051981479193350e-01 0.0000000000000000e+00  3.4529207882352734e-03 9.7057550524391389e-01 0.0000000000000000e+00  3.9785890673547574e-03 9.7063613546655136e-01 0.0000000000000000e+00  4.5631958051575777e-03 9.7071380995971257e-01 0.0000000000000000e+00  5.0804550921701155e-03 9.7079159647805435e-01 0.0000000000000000e+00  5.6535892245711174e-03 9.7088780114296913e-01 0.0000000000000000e+00  6.1911841074019387e-03 9.7098769529706053e-01 0.0000000000000000e+00  6.7273230429834695e-03 9.7109671998328118e-01 0.0000000000000000e+00  7.2943107042542496e-03 9.7122234431607213e-01 0.0000000000000000e+00  7.8027986259681294e-03 9.7134414213035269e-01 0.0000000000000000e+00  8.3734814664177502e-03 9.7149125981581108e-01 0.0000000000000000e+00  8.8828125257368312e-03 9.7163199780474463e-01 0.0000000000000000e+00  9.4290913304605605e-03 9.7179298653256840e-01 0.0000000000000000e+00  9.9645789736744605e-03 9.7196104194710164e-01 0.0000000000000000e+00  1.0470824123995796e-02 9.7212940664054281e-01 0.0000000000000000e+00  1.1024416359871185e-02 9.7232426407653683e-01 0.0000000000000000e+00  1.1512728270479618e-02 9.7250563742880447e-01 0.0000000000000000e+00  1.2056846605570918e-02 9.7271843644392120e-01 0.0000000000000000e+00  1.2554419198316938e-02 9.7292310935604420e-01 0.0000000000000000e+00  1.3063278155635018e-02 9.7314260651538775e-01 0.0000000000000000e+00  1.3586052038048888e-02 9.7337907986994465e-01 0.0000000000000000e+00  1.4059923796297157e-02 9.7360327990726869e-01 0.0000000000000000e+00  1.4587261655961109e-02 9.7386407270761910e-01 0.0000000000000000e+00  1.5052141513197947e-02 9.7410410938088055e-01 0.0000000000000000e+00  1.5558003372992688e-02 9.7437640358885191e-01 0.0000000000000000e+00  1.6038778841026641e-02 9.7464623030107111e-01 0.0000000000000000e+00  1.6503699348332186e-02 9.7491770757883411e-01 0.0000000000000000e+00  1.7000785158048235e-02 9.7521979776772194e-01 0.0000000000000000e+00  1.7439758702404155e-02 9.7549708873665630e-01 0.0000000000000000e+00  1.7928855219638513e-02 9.7581807144742638e-01 0.0000000000000000e+00  1.8366487995936522e-02 9.7611640350804330e-01 0.0000000000000000e+00  1.8823828022848703e-02 9.7643984237867576e-01 0.0000000000000000e+00  1.9278748668345950e-02 9.7677385355380031e-01 0.0000000000000000e+00  1.9697358415676759e-02 9.7709248014799899e-01 0.0000000000000000e+00  2.0156414077293801e-02 9.7745484946895778e-01 0.0000000000000000e+00  2.0557612449172907e-02 9.7778313034145337e-01 0.0000000000000000e+00  2.0997814999067145e-02 9.7815634067124047e-01 0.0000000000000000e+00  2.1403551722102641e-02 9.7851294890348406e-01 0.0000000000000000e+00  2.1805665605941878e-02 9.7887892865573156e-01 0.0000000000000000e+00  2.2223189520331969e-02 9.7927282476531152e-01 0.0000000000000000e+00  2.2593696675523248e-02 9.7963485749552492e-01 0.0000000000000000e+00  2.3003669782866679e-02 9.8004991000083219e-01 0.0000000000000000e+00  2.3363614441949742e-02 9.8042754717301217e-01 0.0000000000000000e+00  2.3746009448756017e-02 9.8084311406484104e-01 0.0000000000000000e+00  2.4112932238460179e-02 9.8125665726547107e-01 0.0000000000000000e+00  2.4456702796499724e-02 9.8165809541936788e-01 0.0000000000000000e+00  2.4825329312204689e-02 9.8210461364490154e-01 0.0000000000000000e+00  2.5145552527935794e-02 9.8250692010323015e-01 0.0000000000000000e+00  2.5497059429588964e-02 9.8296510339392595e-01 0.0000000000000000e+00  2.5811460251906521e-02 9.8339070655460603e-01 0.0000000000000000e+00  2.6129570643163243e-02 9.8383772040794881e-01 0.0000000000000000e+00  2.6448149890340625e-02 9.8430324292558347e-01 0.0000000000000000e+00  2.6732786980313922e-02 9.8473558477259193e-01 0.0000000000000000e+00  2.7042654436782755e-02 9.8522544192540529e-01 0.0000000000000000e+00  2.7309799232580728e-02 9.8566529262413816e-01 0.0000000000000000e+00  2.7595511212196080e-02 9.8615545476286304e-01 0.0000000000000000e+00  2.7859020533190001e-02 9.8662743342747083e-01 0.0000000000000000e+00  2.8109961122703999e-02 9.8709655499297888e-01 0.0000000000000000e+00  2.8370033391336626e-02 9.8760525023691315e-01 0.0000000000000000e+00  2.8594361864588212e-02 9.8806456000139065e-01 0.0000000000000000e+00  2.8837624382784831e-02 9.8858681421609496e-01 0.0000000000000000e+00  2.9048130915770413e-02 9.8906163845513284e-01 0.0000000000000000e+00  2.9263085692860843e-02 9.8957144954164045e-01 0.0000000000000000e+00  2.9468143613686958e-02 9.9008467062309258e-01 0.0000000000000000e+00  2.9651743821370608e-02 9.9056987601684998e-01 0.0000000000000000e+00  2.9844956546743951e-02 9.9111096905521767e-01 0.0000000000000000e+00  3.0007215018586754e-02 9.9159367811626775e-01 0.0000000000000000e+00  3.0178377516100224e-02 9.9213614871188704e-01 0.0000000000000000e+00  3.0327838602632103e-02 9.9264326729200503e-01 0.0000000000000000e+00  3.0470157992183021e-02 9.9316138332682691e-01 0.0000000000000000e+00  3.0608793211363200e-02 9.9370682338762584e-01 0.0000000000000000e+00  3.0725205587829842e-02 9.9420368994613639e-01 0.0000000000000000e+00  3.0845532008219323e-02 9.9476509946899605e-01 0.0000000000000000e+00  3.0943271433120242e-02 9.9526774978966626e-01 0.0000000000000000e+00  3.1039449421842554e-02 9.9581747753988403e-01 0.0000000000000000e+00  3.1122413443724899e-02 9.9635268618495465e-01 0.0000000000000000e+00  3.1192736512699371e-02 9.9687060695269802e-01 0.0000000000000000e+00  3.1258409590628339e-02 9.9743624711243439e-01 0.0000000000000000e+00  3.1307220744683985e-02 9.9794070771988153e-01 0.0000000000000000e+00  3.1351261476387927e-02 9.9850950868458466e-01 0.0000000000000000e+00  3.1381302185933019e-02 9.9902848660410537e-01 0.0000000000000000e+00  3.1402418579287550e-02 9.9957249642503632e-01 0.0000000000000000e+00  3.1413024210391639e-02 1.0001271770658482e+00 0.0000000000000000e+00  3.1413008979892375e-02 1.0006401624417933e+00 0.0000000000000000e+00  3.1401819200841299e-02 1.0012130727981114e+00 0.0000000000000000e+00  3.1382005673183840e-02 1.0017211594513244e+00 0.0000000000000000e+00  3.1349163341923586e-02 1.0022840801583670e+00 0.0000000000000000e+00  3.1307621961610160e-02 1.0028153293809936e+00 0.0000000000000000e+00  3.1256111035267216e-02 1.0033435104338337e+00 0.0000000000000000e+00  3.1190071070694946e-02 1.0039053670861258e+00 0.0000000000000000e+00  3.1120909387071908e-02 1.0044092652192822e+00 0.0000000000000000e+00  3.1031786992246548e-02 1.0049761004608413e+00 0.0000000000000000e+00  3.0941711224796310e-02 1.0054836821538131e+00 0.0000000000000000e+00  3.0834301064639469e-02 1.0060276092928748e+00 0.0000000000000000e+00  3.0717298438894373e-02 1.0065636756789478e+00 0.0000000000000000e+00  3.0596538462956142e-02 1.0070698429328984e+00 0.0000000000000000e+00  3.0452333565929138e-02 1.0076254227271912e+00 0.0000000000000000e+00  3.0314653672019024e-02 1.0081161896901409e+00 0.0000000000000000e+00  3.0149475359887518e-02 1.0086637002986991e+00 0.0000000000000000e+00  2.9986942162379272e-02 1.0091662188795827e+00 0.0000000000000000e+00  2.9809838067160348e-02 1.0096797613205835e+00 0.0000000000000000e+00  2.9615255250037029e-02 1.0102095427850437e+00 0.0000000000000000e+00  2.9428175556716889e-02 1.0106899265258016e+00 0.0000000000000000e+00  2.9207280356574147e-02 1.0112258155522762e+00 0.0000000000000000e+00  2.9001180601571485e-02 1.0116992594110605e+00 0.0000000000000000e+00  2.8764783505804380e-02 1.0122148305896719e+00 0.0000000000000000e+00  2.8527419969173795e-02 1.0127065398921866e+00 0.0000000000000000e+00  2.8286522206886298e-02 1.0131820717826512e+00 0.0000000000000000e+00  2.8015427583431979e-02 1.0136920474463749e+00 0.0000000000000000e+00  2.7764406890847200e-02 1.0141430144376575e+00 0.0000000000000000e+00  2.7471303928602593e-02 1.0146463860361528e+00 0.0000000000000000e+00  2.7196445736695878e-02 1.0150979175064783e+00 0.0000000000000000e+00  2.6896489618410114e-02 1.0155701587737054e+00 0.0000000000000000e+00  2.6584022196269808e-02 1.0160413574845948e+00 0.0000000000000000e+00  2.6284183456603345e-02 1.0164753683874861e+00 0.0000000000000000e+00  2.5940738498786562e-02 1.0169524737663955e+00 0.0000000000000000e+00  2.5627649049347466e-02 1.0173702664804956e+00 0.0000000000000000e+00  2.5269718691557686e-02 1.0178294226536395e+00 0.0000000000000000e+00  2.4925467975231631e-02 1.0182538152872955e+00 0.0000000000000000e+00  2.4570628810944815e-02 1.0186748671449997e+00 0.0000000000000000e+00  2.4186399495394379e-02 1.0191133296620698e+00 0.0000000000000000e+00  2.3831655521626610e-02 1.0195030869642996e+00 0.0000000000000000e+00  2.3422976762431477e-02 1.0199353530900099e+00 0.0000000000000000e+00  2.3049318666248382e-02 1.0203158499172154e+00 0.0000000000000000e+00  2.2636609340586148e-02 1.0207207452775129e+00 0.0000000000000000e+00  2.2223784721286822e-02 1.0211105517162880e+00 0.0000000000000000e+00  2.1821792544352226e-02 1.0214763378433951e+00 0.0000000000000000e+00  2.1372651811934502e-02 1.0218698002700113e+00 0.0000000000000000e+00  2.0966519163987139e-02 1.0222124626611879e+00 0.0000000000000000e+00  2.0502431505577921e-02 1.0225895438388695e+00 0.0000000000000000e+00  2.0069504995928682e-02 1.0229280456308105e+00 0.0000000000000000e+00  1.9613809282568000e-02 1.0232711798722227e+00 0.0000000000000000e+00  1.9137143937200850e-02 1.0236162952236838e+00 0.0000000000000000e+00  1.8693443375294022e-02 1.0239254088063512e+00 0.0000000000000000e+00  1.8189025093815512e-02 1.0242632092456532e+00 0.0000000000000000e+00  1.7734644820727938e-02 1.0245555944209634e+00 0.0000000000000000e+00  1.7227314504241965e-02 1.0248692399239263e+00 0.0000000000000000e+00  1.6736719354748474e-02 1.0251601599471227e+00 0.0000000000000000e+00  1.6248710209320481e-02 1.0254379122602211e+00 0.0000000000000000e+00  1.5717441066957511e-02 1.0257275394335967e+00 0.0000000000000000e+00  1.5236857349223271e-02 1.0259784721933356e+00 0.0000000000000000e+00  1.4689190293938193e-02 1.0262520283831766e+00 0.0000000000000000e+00  1.4189538368409440e-02 1.0264904217261510e+00 0.0000000000000000e+00  1.3652997375327049e-02 1.0267348907576057e+00 0.0000000000000000e+00  1.3110310651721290e-02 1.0269703522561910e+00 0.0000000000000000e+00  1.2597295410461335e-02 1.0271823133801581e+00 0.0000000000000000e+00  1.2023334816609917e-02 1.0274075226548334e+00 0.0000000000000000e+00  1.1510274001804242e-02 1.0275984266449956e+00 0.0000000000000000e+00  1.0933269538185821e-02 1.0278016519023008e+00 0.0000000000000000e+00  1.0391451348575179e-02 1.0279816681729999e+00 0.0000000000000000e+00  9.8388891919770106e-03 1.0281546868861484e+00 0.0000000000000000e+00  9.2543372119437348e-03 1.0283263297602523e+00 0.0000000000000000e+00  8.7219440110690577e-03 1.0284726506308715e+00 0.0000000000000000e+00  8.1191200005829994e-03 1.0286270083075779e+00 0.0000000000000000e+00  7.5778111030439669e-03 1.0287555318888417e+00 0.0000000000000000e+00  6.9866671463297740e-03 1.0288851512244819e+00 0.0000000000000000e+00  6.4077882158910379e-03 1.0290013650590581e+00 0.0000000000000000e+00  5.8492947582975859e-03 1.0291035620375737e+00 0.0000000000000000e+00  5.2366468618251063e-03 1.0292045866105037e+00 0.0000000000000000e+00  4.6900082929182442e-03 1.0292850380216430e+00 0.0000000000000000e+00  4.0734511971852764e-03 1.0293649171468333e+00 0.0000000000000000e+00  3.5082530329329838e-03 1.0294281065106083e+00 0.0000000000000000e+00  2.9182307604700545e-03 1.0294839017675426e+00 0.0000000000000000e+00  2.3125194397108418e-03 1.0295304386204629e+00 0.0000000000000000e+00  1.7540291663531394e-03 1.0295637500293242e+00 0.0000000000000000e+00  1.1283748279473159e-03 1.0295901729989581e+00 0.0000000000000000e+00  5.7240835466478197e-04 1.0296040175442602e+00 0.0000000000000000e+00  -4.2168814140316219e-05 1.0296087872262940e+00 0.0000000000000000e+00  -6.2632987320705540e-04 1.0296030714490392e+00 0.0000000000000000e+00  -1.2033547756080754e-03 1.0295876126222323e+00 0.0000000000000000e+00  -1.8213552966911571e-03 1.0295602214315942e+00 0.0000000000000000e+00  -2.3746238226723566e-03 1.0295261666527273e+00 0.0000000000000000e+00  -2.9975908457198445e-03 1.0294769998364137e+00 0.0000000000000000e+00  -3.5578850805800897e-03 1.0294229406693738e+00 0.0000000000000000e+00  -4.1549248089568216e-03 1.0293550195367942e+00 0.0000000000000000e+00  -4.7487094566084614e-03 1.0292768346871881e+00 0.0000000000000000e+00  -5.3057988441195447e-03 1.0291937623834670e+00 0.0000000000000000e+00  -5.9203815408607214e-03 1.0290910920471581e+00 0.0000000000000000e+00  -6.4634766873828443e-03 1.0289906426809525e+00 0.0000000000000000e+00  -7.0681903573566627e-03 1.0288679367059341e+00 0.0000000000000000e+00  -7.6274127391233997e-03 1.0287441483493387e+00 0.0000000000000000e+00  -8.1939966391992910e-03 1.0286084834850764e+00 0.0000000000000000e+00  -8.7839598282948260e-03 1.0284560915096799e+00 0.0000000000000000e+00  -9.3164665341864770e-03 1.0283086371923800e+00 0.0000000000000000e+00  -9.9120557345328472e-03 1.0281323827304374e+00 0.0000000000000000e+00  -1.0439996016956880e-02 1.0279659616719510e+00 0.0000000000000000e+00  -1.1011751958431333e-02 1.0277747166770808e+00 0.0000000000000000e+00  -1.1562652648865716e-02 1.0275793792258829e+00 0.0000000000000000e+00  -1.2090464982313988e-02 1.0273818252386526e+00 0.0000000000000000e+00  -1.2660965295411717e-02 1.0271565582690081e+00 0.0000000000000000e+00  -1.3164567257378830e-02 1.0269473368369837e+00 0.0000000000000000e+00  -1.3726398402747565e-02 1.0267021387173487e+00 0.0000000000000000e+00  -1.4233856255565220e-02 1.0264697018991435e+00 0.0000000000000000e+00  -1.4759765490051873e-02 1.0262175047283970e+00 0.0000000000000000e+00  -1.5290656437724492e-02 1.0259508915520876e+00 0.0000000000000000e+00  -1.5775989441404674e-02 1.0256962586175058e+00 0.0000000000000000e+00  -1.6312216281913396e-02 1.0254024072396506e+00 0.0000000000000000e+00  -1.6782588223533148e-02 1.0251334632803240e+00 0.0000000000000000e+00  -1.7297433323288109e-02 1.0248266749946648e+00 0.0000000000000000e+00  -1.7778448653931432e-02 1.0245278844302550e+00 0.0000000000000000e+00  -1.8250219993229094e-02 1.0242229804272960e+00 0.0000000000000000e+00  -1.8746878781527285e-02 1.0238887834232915e+00 0.0000000000000000e+00  -1.9186632578430441e-02 1.0235811027148181e+00 0.0000000000000000e+00  -1.9675260377650237e-02 1.0232256730670075e+00 0.0000000000000000e+00  -2.0107795714654972e-02 1.0228986062949985e+00 0.0000000000000000e+00  -2.0564539846452432e-02 1.0225399447938985e+00 0.0000000000000000e+00  -2.1009951143619844e-02 1.0221763933244943e+00 0.0000000000000000e+00  -2.1424031287013007e-02 1.0218255766361226e+00 0.0000000000000000e+00  -2.1873011922020021e-02 1.0214304623239359e+00 0.0000000000000000e+00  -2.2264084409749460e-02 1.0210731456187296e+00 0.0000000000000000e+00  -2.2693861901634440e-02 1.0206655058302632e+00 0.0000000000000000e+00  -2.3083445443389482e-02 1.0202816572341844e+00 0.0000000000000000e+00  -2.3474510397203982e-02 1.0198817974923302e+00 0.0000000000000000e+00  -2.3872899674301902e-02 1.0194584819424422e+00 0.0000000000000000e+00  -2.4227876187826354e-02 1.0190668356048476e+00 0.0000000000000000e+00  -2.4617774374696779e-02 1.0186198434220086e+00 0.0000000000000000e+00  -2.4956812608723750e-02 1.0182158421566705e+00 0.0000000000000000e+00  -2.5319031889996593e-02 1.0177672796393418e+00 0.0000000000000000e+00  -2.5659438676597802e-02 1.0173285572980271e+00 0.0000000000000000e+00  -2.5981626178530465e-02 1.0168967526544070e+00 0.0000000000000000e+00  -2.6321439078848357e-02 1.0164223570673367e+00 0.0000000000000000e+00  -2.6615846730285272e-02 1.0159942808342146e+00 0.0000000000000000e+00  -2.6937746795549240e-02 1.0155063888961589e+00 0.0000000000000000e+00  -2.7220950410140436e-02 1.0150584042508286e+00 0.0000000000000000e+00  -2.7509847020828072e-02 1.0145815288325619e+00 0.0000000000000000e+00  -2.7792459867369057e-02 1.0140935606668156e+00 0.0000000000000000e+00  -2.8045950766054182e-02 1.0136358711868960e+00 0.0000000000000000e+00  -2.8318052964699653e-02 1.0131210814331086e+00 0.0000000000000000e+00  -2.8550156528297281e-02 1.0126604809018136e+00 0.0000000000000000e+00  -2.8797957176445114e-02 1.0121441119401640e+00 0.0000000000000000e+00  -2.9020961173027375e-02 1.0116548376575771e+00 0.0000000000000000e+00  -2.9234778118766989e-02 1.0111607929289963e+00 0.0000000000000000e+00  -2.9450814044516438e-02 1.0106331682979561e+00 0.0000000000000000e+00  -2.9636033039708850e-02 1.0101545226763127e+00 0.0000000000000000e+00  -2.9834027478482617e-02 1.0096115008907272e+00 0.0000000000000000e+00  -3.0001662974083843e-02 1.0091220135725831e+00 0.0000000000000000e+00  -3.0172274745044289e-02 1.0085904946901265e+00 0.0000000000000000e+00  -3.0329462071774730e-02 1.0080650242010285e+00 0.0000000000000000e+00  -3.0469454150645704e-02 1.0075618599070266e+00 0.0000000000000000e+00  -3.0612202697142189e-02 1.0070064967647134e+00 0.0000000000000000e+00  -3.0729225808090364e-02 1.0065112812364887e+00 0.0000000000000000e+00  -3.0849679042793707e-02 1.0059531298245405e+00 0.0000000000000000e+00  -3.0950149086680586e-02 1.0054383733442074e+00 0.0000000000000000e+00  -3.1043690217146896e-02 1.0049046135501132e+00 0.0000000000000000e+00  -3.1129234546469185e-02 1.0043520662284626e+00 0.0000000000000000e+00  -3.1197756378844043e-02 1.0038447394441785e+00 0.0000000000000000e+00  -3.1263416634118753e-02 1.0032745429120287e+00 0.0000000000000000e+00  -3.1311838998796318e-02 1.0027668476028893e+00 0.0000000000000000e+00  -3.1354334339446385e-02 1.0022070642621266e+00 0.0000000000000000e+00  -3.1384366899564690e-02 1.0016712036087247e+00 0.0000000000000000e+00  -3.1403765206564863e-02 1.0011449836442770e+00 0.0000000000000000e+00  -3.1413514197593653e-02 1.0005778905520164e+00 0.0000000000000000e+00  -3.1412448963770871e-02 1.0000707724230971e+00 0.0000000000000000e+00  -3.1400188391014057e-02 9.9949909325037556e-01 0.0000000000000000e+00  -3.1379052766151383e-02 9.9898296683773025e-01 0.0000000000000000e+00  -3.1346145823816916e-02 9.9843489465880730e-01 0.0000000000000000e+00  -3.1302377037993448e-02 9.9788607429851006e-01 0.0000000000000000e+00  -3.1251623948293873e-02 9.9737284157958683e-01 0.0000000000000000e+00  -3.1184296391343843e-02 9.9680443445377254e-01 0.0000000000000000e+00  -3.1114943263835695e-02 9.9630157419214560e-01 0.0000000000000000e+00  -3.1026849637134788e-02 9.9574167407425584e-01 0.0000000000000000e+00  -3.0934647284933101e-02 9.9522137366260743e-01 0.0000000000000000e+00  -3.0831311434820756e-02 9.9469576481797928e-01 0.0000000000000000e+00  -3.0712063467922254e-02 9.9414553399391814e-01 0.0000000000000000e+00  -3.0594678238071882e-02 9.9364916812274373e-01 0.0000000000000000e+00  -3.0451883014500740e-02 9.9309265849847084e-01 0.0000000000000000e+00  -3.0314924538534349e-02 9.9259805034597137e-01 0.0000000000000000e+00  -3.0155860784081237e-02 9.9206260156654569e-01 0.0000000000000000e+00  -2.9990999175908754e-02 9.9154413902309169e-01 0.0000000000000000e+00  -2.9823081867176072e-02 9.9104796838778386e-01 0.0000000000000000e+00  -2.9629449012529938e-02 9.9050952599167286e-01 0.0000000000000000e+00  -2.9448236726097567e-02 9.9003358666102581e-01 0.0000000000000000e+00  -2.9234328359448846e-02 9.8950166221221270e-01 0.0000000000000000e+00  -2.9029855019837000e-02 9.8901950322660581e-01 0.0000000000000000e+00  -2.8807085586151748e-02 9.885197662