<?xml version="1.0"?>
<VTKFile type="UnstructuredGrid"  version="0.1"  >
<UnstructuredGrid>
<Piece  NumberOfPoints="4278" NumberOfCells="6772">
<Points>
<DataArray  type="Float64"  NumberOfComponents="3"  format="ascii">0 0.01 0  10 0.01 0  0 1.019573477143549 0  10 1.019573477143549 0  0.007129524987038337 0.009997491741717768 0  0.01258064459049757 0.00999219056738478 0  0.01872173241756402 0.009982708334120727 0  0.02429919625640796 0.009970876572043954 0  0.03017238705920286 0.009955108531615313 0  0.03612352734296466 0.0099356743715591 0  0.04164979236492252 0.009914517792428084 0  0.04780928449023854 0.009887415768096998 0  0.05327287671237849 0.009860276931383746 0  0.0593436395885565 0.009826715421083503 0  0.06505608699933001 0.009791870631895848 0  0.07077243060783153 0.009753845329312128 0  0.07684085351634186 0.009710036052663748 0  0.08230528612367993 0.009667566921662384 0  0.08846525752759338 0.009616276826848907 0  0.09398926586603956 0.0095672187064786 0  0.09994377871281757 0.009511110804477986 0  0.10581288515308 0.009452550633355501 0  0.1113930001121819 0.009393893683773193 0  0.1175326299024069 0.009326020378011352 0  0.122983161250664 0.009262856809916281 0  0.1290978349347763 0.009188765415777931 0  0.1347300222736412 0.00911751981665075 0  0.1405327472005438 0.009041131768776852 0  0.1465421455697866 0.008958856277281909 0  0.1520341809431761 0.008880870879718691 0  0.1581991754706344 0.00879018143976357 0  0.1636834803794234 0.008706732874359017 0  0.1697073563005918 0.008612096527554045 0  0.1754901396361989 0.008518345936558386 0  0.1811391035120075 0.008424050210098115 0  0.1872444279222087 0.00831915423323064 0  0.1926961446341008 0.008222899998379215 0  0.198841090009393 0.008111516418624823 0  0.2044064770158165 0.008008028244452866 0  0.2102948627703611 0.007895869216798803 0  0.2162299794791283 0.007780085801116003 0  0.2217647046821167 0.007669675498109103 0  0.2279204403470532 0.007544154739747676 0  0.2333791472114919 0.007430485124751003 0  0.2394590817234977 0.0073013084386626 0  0.245152498789355 0.007177928079207972 0  0.2508861115607116 0.007051356111670669 0  0.2569419868439766 0.006915186417023598 0  0.2624099649457279 0.006790084113692359 0  0.2685711825796066 0.006646722567663751 0  0.274083748205357 0.006516341894728842 0  0.2800541704182985 0.00637292855786236 0  0.2859022845836161 0.006230279166502627 0  0.291495955429921 0.006091868246150131 0  0.2976275706217687 0.005937986548763313 0  0.3030757324287757 0.005799406374294222 0  0.3091980118239236 0.005641654227187252 0  0.3148109405089491 0.005495191514879527 0  0.3206341933715942 0.005341435282378838 0  0.3266248575896781 0.005181393525330103 0  0.3321252080346692 0.005032833254881577 0  0.3382880718234609 0.004864596209960478 0  0.3437628463580178 0.004713611578807419 0  0.3498021006600692 0.004545443593512952 0  0.3555594631656461 0.004383601001460968 0  0.3612291099056053 0.004222822711549606 0  0.3673210805066339 0.004048576418709386 0  0.3727746135437823 0.003891330909934085 0  0.3789246700786391 0.003712634483246944 0  0.3844721023230384 0.00355025746928806 0  0.3903845048135511 0.003376011435332509 0  0.3962935688476314 0.003200699755406988 0  0.4018430601204535 0.00303505085978487 0  0.4079921977692303 0.002850427660455144 0  0.4134449905916002 0.002685819499171436 0  0.4195385366679084 0.002500937932218923 0  0.425204482428441 0.002328206591247292 0  0.4309651825948974 0.00215183074136113 0  0.4370014133195289 0.001966263547608745 0  0.4424769325836848 0.00179732019881714 0  0.4486395183564056 0.001606544730410899 0  0.4541373275735043 0.001435838569361521 0  0.4601308451156257 0.001249254088784412 0  0.4659488863550298 0.001067707976620331 0  0.471564807260988 0.0008921302908496037 0  0.4776843759254726 0.0007004920228137959 0  0.4831317484445766 0.0005296836585198918 0  0.4892643513384632 0.0003372062279158936 0  0.4948528283485032 0.000161696161435303 0  0.5007056813361916 -2.216943068070812e-05 0  0.5066699093509902 -0.000209526046556915 0  0.5121845298566023 -0.0003826949545447442 0  0.5183439831944545 -0.0005759742926309219 0  0.5238088617282698 -0.0007472800272428554 0  0.5298681543527348 -0.0009369594486414562 0  0.5355929349139432 -0.001115856450691032 0  0.5412927239341832 -0.001293613669039852 0  0.5473668732672543 -0.001482588207084091 0  0.5528259073001393 -0.001651967505962102 0  0.5589819336317072 -0.001842386787779294 0  0.5645100189486582 -0.002012797049529044 0  0.5704524332663232 -0.002195301346534757 0  0.5763298911552834 -0.002375058665203144 0  0.5819006708717119 -0.002544689651648297 0  0.5880413281562127 -0.002730768313747055 0  0.5934904284812221 -0.002895042191696308 0  0.5995995320960693 -0.003078202338538874 0  0.605236779888003 -0.003246210954182579 0  0.6110299855290301 -0.003417806240976177 0  0.6170432999212266 -0.00359472323302265 0  0.6225307972792151 -0.00375505261922207 0  0.6286944373476531 -0.003933803567825084 0  0.6341794289295242 -0.004091634709336539 0  0.6401977648984302 -0.004263413669385436 0  0.6459846030577213 -0.004427148756161272 0  0.6516277670629291 -0.004585409549508515 0  0.6577342305863492 -0.004755038487876419 0  0.6631843111407589 -0.004904958327357115 0  0.6693271588517591 -0.005072208653571043 0  0.6748942591145469 -0.005222152905474348 0  0.6807781354428797 -0.005378892074409919 0  0.6867158102497221 -0.005535201343768038 0  0.6922478556369909 -0.005679100421160843 0  0.6984036264198542 -0.005837205328254034 0  0.7038624132928571 -0.005975584427524931 0  0.7099402809449575 -0.006127588021236129 0  0.7156361945945205 -0.006268012368771779 0  0.7213667017809595 -0.006407263887957157 0  0.7274241898103784 -0.006552202568912044 0  0.7328913375361901 -0.006680980644346233 0  0.7390522654079078 -0.006823736587757829 0  0.7445663161830813 -0.006949337256267011 0  0.7505345306161221 -0.007082931996795786 0  0.7563856967966242 -0.007211490056377221 0  0.7619775509571868 -0.007332073958440476 0  0.7681106054434813 -0.007461725199742056 0  0.7735594228940573 -0.007574589702563127 0  0.7796809699364847 -0.007698739982391196 0  0.7852974086111042 -0.007810142587226769 0  0.7911178568436495 -0.007923025648348906 0  0.797112403703894 -0.008036515862006795 0  0.8026119630288198 -0.008138129173272899 0  0.8087760180262171 -0.008249131188213875 0  0.814253500572072 -0.008345174877796967 0  0.8202905515677629 -0.008448166667805387 0  0.8260544286221699 -0.008543663134562481 0  0.831720415905675 -0.008634807324656511 0  0.8378167080097026 -0.008729817306667463 0  0.8432709709919499 -0.008812108559864256 0  0.8494209576248264 -0.008901791974276371 0  0.8549745826348545 -0.008979924427376591 0  0.8608814329347291 -0.009060026011188804 0  0.8667998142885592 -0.009137155111096256 0  0.8723460990452367 -0.009206568509458774 0  0.8784989383774584 -0.009280301817794542 0  0.8839552890388401 -0.009342788637451834 0  0.8900456692707091 -0.009409293585850673 0  0.8957233874467343 -0.009468190513990782 0  0.9014754209053449 -0.009524786393944277 0  0.9075213579987256 -0.009580921173179099 0  0.9129954731058688 -0.009628765913494807 0  0.9191593188847452 -0.009679229788646495 0  0.9246655330424429 -0.009721240864333262 0  0.9306503084472221 -0.009763603884533442 0  0.9364847200361547 -0.009801580348484516 0  0.9420914259676206 -0.009834972127394636 0  0.948219177636862 -0.009867976960504428 0  0.9536688877131657 -0.009894257783109666 0  0.9597979104438458 -0.009920349306153329 0  0.9654020314719589 -0.009940987600901847 0  0.9712398170272581 -0.009959209624459757 0  0.9772219132298864 -0.009974407121723252 0  0.9827297975109929 -0.009985285083248089 0  0.9888934840407251 -0.009993913310034224 0  0.9943667421923366 -0.009998434045983932 0  1.000414962337846 -0.009999991502249178 0  1.00616395254491 -0.009998125110441144 0  1.011844857354635 -0.009993077234903055 0  1.017933801412069 -0.009984132829796667 0  1.023390946643176 -0.00997301205183276 0  1.029544679732296 -0.009956955598792184 0  1.035089558108845 -0.009939300412459717 0  1.041010936359372 -0.009917116481575694 0  1.04691554237944 -0.00989157814857561 0  1.052471258615448 -0.009864440751261633 0  1.05862104751389 -0.009830897850136421 0  1.064075481579663 -0.009798076706746352 0  1.070173358231585 -0.009757978136698224 0  1.075837941143087 -0.00971752009646258 0  1.081604377355612 -0.009673173917302162 0  1.087640686528322 -0.009623351755525641 0  1.093119387704205 -0.009575135453199036 0  1.099284093826516 -0.009517491101966447 0  1.104783734376909 -0.009463052176492596 0  1.110779897618174 -0.009400480030121557 0  1.116599992234411 -0.00933655469875222 0  1.122217899723542 -0.009271889359757672 0  1.128339818747432 -0.009198135031144493 0  1.133789446190431 -0.00912961705214143 0  1.139923317158062 -0.009049295973540348 0  1.145515844317945 -0.008973134373133167 0  1.151367773813766 -0.008890475161473248 0  1.157336906671575 -0.008803064948780913 0  1.16285160438384 -0.008719557366803981 0  1.16901331600552 -0.008623157866544266 0  1.174481522907442 -0.00853490108265173 0  1.180539122189597 -0.008434191931863186 0  1.186271617394136 -0.008336073959344166 0  1.191966996821913 -0.008235914041393521 0  1.198046448076202 -0.008126091334838595 0  1.203505695906331 -0.008024945109277802 0  1.209661806077474 -0.007908057515838151 0  1.21519584913737 -0.007800455577732041 0  1.221132109188887 -0.00768241304184519 0  1.227019087412133 -0.007562711583992629 0  1.232585135446325 -0.007447155722966398 0  1.238729389023077 -0.007316953404904543 0  1.244180486899644 -0.007199156086382225 0  1.250286093435722 -0.007064709646262071 0  1.255932842016573 -0.006938052500145445 0  1.261716857103797 -0.006806053534187844 0  1.26773845151126 -0.006666245775332091 0  1.273222687278595 -0.006536836953056475 0  1.279386853652711 -0.00638906998029936 0  1.284876650734994 -0.006255450389977176 0  1.290887326898431 -0.00610702037198264 0  1.296685536664392 -0.00596177282270944 0  1.30231949087952 -0.005818744638503708 0  1.308431215520824
[...]
<PointData  Vectors="Velocity"> 
<DataArray  type="Float64"  Name="Velocity"  NumberOfComponents="3" format="ascii">-1.4003973392633419e-10 9.7039118677891789e-01 0.0000000000000000e+00  -1.4003973392633419e-10 9.7039118677891789e-01 0.0000000000000000e+00  1.1794483933957498e-05 -3.1198799492878179e-02 0.0000000000000000e+00  1.1794483933957498e-05 -3.1198799492878179e-02 0.0000000000000000e+00  6.8276937226826847e-04 9.7039837325287293e-01 0.0000000000000000e+00  1.2046099755103224e-03 9.7041356190796269e-01 0.0000000000000000e+00  1.7921088235942715e-03 9.7044073060039249e-01 0.0000000000000000e+00  2.3251659669962636e-03 9.7047463240340581e-01 0.0000000000000000e+00  2.8857804098647542e-03 9.7051981479176297e-01 0.0000000000000000e+00  3.4529207910829174e-03 9.7057550524310665e-01 0.0000000000000000e+00  3.9785890403067608e-03 9.7063613546958205e-01 0.0000000000000000e+00  4.5631958144454633e-03 9.7071380995715772e-01 0.0000000000000000e+00  5.0804550683747913e-03 9.7079159647468150e-01 0.0000000000000000e+00  5.6535890464121160e-03 9.7088780113425277e-01 0.0000000000000000e+00  6.1911839134402378e-03 9.7098769529374340e-01 0.0000000000000000e+00  6.7273225103785719e-03 9.7109671997975222e-01 0.0000000000000000e+00  7.2943106668957106e-03 9.7122234431469900e-01 0.0000000000000000e+00  7.8027982611958155e-03 9.7134414213680065e-01 0.0000000000000000e+00  8.3734814807522248e-03 9.7149125981830264e-01 0.0000000000000000e+00  8.8828125421793608e-03 9.7163199780310516e-01 0.0000000000000000e+00  9.4290914009858926e-03 9.7179298653221990e-01 0.0000000000000000e+00  9.9645790756551292e-03 9.7196104194740174e-01 0.0000000000000000e+00  1.0470824135389271e-02 9.7212940664522240e-01 0.0000000000000000e+00  1.1024416329068421e-02 9.7232426408412143e-01 0.0000000000000000e+00  1.1512728186610831e-02 9.7250563745778340e-01 0.0000000000000000e+00  1.2056846594818043e-02 9.7271843644738254e-01 0.0000000000000000e+00  1.2554419673070066e-02 9.7292310935799298e-01 0.0000000000000000e+00  1.3063279398044412e-02 9.7314260649654083e-01 0.0000000000000000e+00  1.3586052215812631e-02 9.7337907986904759e-01 0.0000000000000000e+00  1.4059924489459670e-02 9.7360327989585593e-01 0.0000000000000000e+00  1.4587262810802399e-02 9.7386407267479125e-01 0.0000000000000000e+00  1.5052141508295456e-02 9.7410410934311553e-01 0.0000000000000000e+00  1.5558004056130460e-02 9.7437640356642241e-01 0.0000000000000000e+00  1.6038781329731772e-02 9.7464623024146957e-01 0.0000000000000000e+00  1.6503709337415209e-02 9.7491770734460070e-01 0.0000000000000000e+00  1.7000786713271623e-02 9.7521979773088485e-01 0.0000000000000000e+00  1.7439760196770578e-02 9.7549708870143659e-01 0.0000000000000000e+00  1.7928861577200701e-02 9.7581807129124609e-01 0.0000000000000000e+00  1.8366489061665887e-02 9.7611640348056672e-01 0.0000000000000000e+00  1.8823833631969388e-02 9.7643984222895663e-01 0.0000000000000000e+00  1.9278750807672797e-02 9.7677385352520152e-01 0.0000000000000000e+00  1.9697358931623703e-02 9.7709248013491523e-01 0.0000000000000000e+00  2.0156414420669864e-02 9.7745484946653260e-01 0.0000000000000000e+00  2.0557613734544501e-02 9.7778313031291741e-01 0.0000000000000000e+00  2.0997819160984876e-02 9.7815634057113221e-01 0.0000000000000000e+00  2.1403552476278637e-02 9.7851294888695850e-01 0.0000000000000000e+00  2.1805671584146185e-02 9.7887892849019797e-01 0.0000000000000000e+00  2.2223191521310099e-02 9.7927282470782961e-01 0.0000000000000000e+00  2.2593699104778219e-02 9.7963485742305445e-01 0.0000000000000000e+00  2.3003671785889190e-02 9.8004990994049002e-01 0.0000000000000000e+00  2.3363616549099100e-02 9.8042754710172764e-01 0.0000000000000000e+00  2.3746009852096888e-02 9.8084311404933289e-01 0.0000000000000000e+00  2.4112934233996106e-02 9.8125665719862454e-01 0.0000000000000000e+00  2.4456704508877169e-02 9.8165809537039994e-01 0.0000000000000000e+00  2.4825329530040345e-02 9.8210461364679791e-01 0.0000000000000000e+00  2.5145552431259530e-02 9.8250692011860563e-01 0.0000000000000000e+00  2.5497061448919139e-02 9.8296510334129084e-01 0.0000000000000000e+00  2.5811461049471750e-02 9.8339070654399674e-01 0.0000000000000000e+00  2.6129577527695003e-02 9.8383772020063942e-01 0.0000000000000000e+00  2.6448151352429491e-02 9.8430324289043336e-01 0.0000000000000000e+00  2.6732788823390263e-02 9.8473558471397959e-01 0.0000000000000000e+00  2.7042655171913631e-02 9.8522544189915195e-01 0.0000000000000000e+00  2.7309799353351347e-02 9.8566529262171410e-01 0.0000000000000000e+00  2.7595510734462276e-02 9.8615545477739019e-01 0.0000000000000000e+00  2.7859020408318044e-02 9.8662743343192161e-01 0.0000000000000000e+00  2.8109960744445436e-02 9.8709655500288640e-01 0.0000000000000000e+00  2.8370033353432429e-02 9.8760525022535839e-01 0.0000000000000000e+00  2.8594362102677021e-02 9.8806455996370901e-01 0.0000000000000000e+00  2.8837624399053276e-02 9.8858681420912775e-01 0.0000000000000000e+00  2.9048130559020335e-02 9.8906163845631734e-01 0.0000000000000000e+00  2.9263086371016569e-02 9.8957144947492715e-01 0.0000000000000000e+00  2.9468144338947004e-02 9.9008467057155125e-01 0.0000000000000000e+00  2.9651749504065194e-02 9.9056987563499710e-01 0.0000000000000000e+00  2.9844958142897927e-02 9.9111096897520889e-01 0.0000000000000000e+00  3.0007217103332630e-02 9.9159367799198617e-01 0.0000000000000000e+00  3.0178379202357775e-02 9.9213614862790855e-01 0.0000000000000000e+00  3.0327838543358247e-02 9.9264326724443519e-01 0.0000000000000000e+00  3.0470159448721845e-02 9.9316138321162151e-01 0.0000000000000000e+00  3.0608793378955130e-02 9.9370682334017379e-01 0.0000000000000000e+00  3.0725204430452038e-02 9.9420368997055442e-01 0.0000000000000000e+00  3.0845531605525934e-02 9.9476509948425751e-01 0.0000000000000000e+00  3.0943270690004548e-02 9.9526774981023525e-01 0.0000000000000000e+00  3.1039446399859630e-02 9.9581747763117612e-01 0.0000000000000000e+00  3.1122411624436679e-02 9.9635268623503093e-01 0.0000000000000000e+00  3.1192732631479009e-02 9.9687060706085784e-01 0.0000000000000000e+00  3.1258408312123197e-02 9.9743624714367674e-01 0.0000000000000000e+00  3.1307219690199173e-02 9.9794070774613275e-01 0.0000000000000000e+00  3.1351258773078712e-02 9.9850950875042055e-01 0.0000000000000000e+00  3.1381297248733335e-02 9.9902848673719058e-01 0.0000000000000000e+00  3.1402414431146858e-02 9.9957249653883706e-01 0.0000000000000000e+00  3.1413021626008515e-02 1.0001271771335467e+00 0.0000000000000000e+00  3.1413005062194480e-02 1.0006401625475982e+00 0.0000000000000000e+00  3.1401813077871640e-02 1.0012130729421207e+00 0.0000000000000000e+00  3.1382002902691816e-02 1.0017211595049293e+00 0.0000000000000000e+00  3.1349159684254078e-02 1.0022840802288386e+00 0.0000000000000000e+00  3.1307620980685437e-02 1.0028153293983444e+00 0.0000000000000000e+00  3.1256110536068311e-02 1.0033435104315416e+00 0.0000000000000000e+00  3.1190069745361100e-02 1.0039053671126026e+00 0.0000000000000000e+00  3.1120909184635365e-02 1.0044092652226486e+00 0.0000000000000000e+00  3.1031786625361657e-02 1.0049761004594064e+00 0.0000000000000000e+00  3.0941711182192813e-02 1.0054836821566069e+00 0.0000000000000000e+00  3.0834300966967151e-02 1.0060276092878255e+00 0.0000000000000000e+00  3.0717298395168978e-02 1.0065636756774872e+00 0.0000000000000000e+00  3.0596539762222295e-02 1.0070698428912679e+00 0.0000000000000000e+00  3.0452332860041627e-02 1.0076254227733947e+00 0.0000000000000000e+00  3.0314654822052745e-02 1.0081161896395370e+00 0.0000000000000000e+00  3.0149475339758921e-02 1.0086637003062675e+00 0.0000000000000000e+00  2.9986941050068241e-02 1.0091662189418362e+00 0.0000000000000000e+00  2.9809838743353419e-02 1.0096797613053303e+00 0.0000000000000000e+00  2.9615255974797396e-02 1.0102095427606039e+00 0.0000000000000000e+00  2.9428178069813890e-02 1.0106899264400988e+00 0.0000000000000000e+00  2.9207281443476705e-02 1.0112258155266562e+00 0.0000000000000000e+00  2.9001183011529080e-02 1.0116992593352947e+00 0.0000000000000000e+00  2.8764783811983562e-02 1.0122148305947638e+00 0.0000000000000000e+00  2.8527420254239808e-02 1.0127065398866655e+00 0.0000000000000000e+00  2.8286521344775918e-02 1.0131820718239821e+00 0.0000000000000000e+00  2.8015428669012431e-02 1.0136920474186648e+00 0.0000000000000000e+00  2.7764410370602906e-02 1.0141430143658092e+00 0.0000000000000000e+00  2.7471301606354716e-02 1.0146463861379138e+00 0.0000000000000000e+00  2.7196435777282885e-02 1.0150979178740134e+00 0.0000000000000000e+00  2.6896478060368156e-02 1.0155701592254633e+00 0.0000000000000000e+00  2.6584021629395854e-02 1.0160413575248448e+00 0.0000000000000000e+00  2.6284182142470185e-02 1.0164753684962002e+00 0.0000000000000000e+00  2.5940760946563411e-02 1.0169524731533328e+00 0.0000000000000000e+00  2.5627664543502713e-02 1.0173702660959127e+00 0.0000000000000000e+00  2.5269725221017437e-02 1.0178294224904769e+00 0.0000000000000000e+00  2.4925474403347758e-02 1.0182538151249063e+00 0.0000000000000000e+00  2.4570645819110955e-02 1.0186748667017804e+00 0.0000000000000000e+00  2.4186405216752891e-02 1.0191133295112329e+00 0.0000000000000000e+00  2.3831670455880440e-02 1.0195030865807901e+00 0.0000000000000000e+00  2.3422991098879117e-02 1.0199353527186521e+00 0.0000000000000000e+00  2.3049328442469801e-02 1.0203158496798803e+00 0.0000000000000000e+00  2.2636613324540394e-02 1.0207207451762805e+00 0.0000000000000000e+00  2.2223788007479501e-02 1.0211105516205408e+00 0.0000000000000000e+00  2.1821794812377501e-02 1.0214763377602385e+00 0.0000000000000000e+00  2.1372652408269691e-02 1.0218698002268130e+00 0.0000000000000000e+00  2.0966523284768092e-02 1.0222124625313320e+00 0.0000000000000000e+00  2.0502433243536303e-02 1.0225895437606973e+00 0.0000000000000000e+00  2.0069505221991454e-02 1.0229280455958445e+00 0.0000000000000000e+00  1.9613809284091462e-02 1.0232711798249912e+00 0.0000000000000000e+00  1.9137143910825112e-02 1.0236162952025849e+00 0.0000000000000000e+00  1.8693441647762096e-02 1.0239254087977603e+00 0.0000000000000000e+00  1.8189024262915847e-02 1.0242632092287929e+00 0.0000000000000000e+00  1.7734643037990577e-02 1.0245555944486262e+00 0.0000000000000000e+00  1.7227312037351620e-02 1.0248692399736579e+00 0.0000000000000000e+00  1.6736721012191078e-02 1.0251601599270368e+00 0.0000000000000000e+00  1.6248703626250388e-02 1.0254379123633888e+00 0.0000000000000000e+00  1.5717438425047053e-02 1.0257275394636660e+00 0.0000000000000000e+00  1.5236852984981798e-02 1.0259784722370815e+00 0.0000000000000000e+00  1.4689186949414630e-02 1.0262520284158578e+00 0.0000000000000000e+00  1.4189536659567467e-02 1.0264904217420110e+00 0.0000000000000000e+00  1.3652993267942523e-02 1.0267348907886107e+00 0.0000000000000000e+00  1.3110306600812870e-02 1.0269703522828122e+00 0.0000000000000000e+00  1.2597287672810729e-02 1.0271823133550850e+00 0.0000000000000000e+00  1.2023329860038538e-02 1.0274075226177135e+00 0.0000000000000000e+00  1.1510267078026009e-02 1.0275984265773201e+00 0.0000000000000000e+00  1.0933265959606133e-02 1.0278016518590953e+00 0.0000000000000000e+00  1.0391449730007149e-02 1.0279816681740157e+00 0.0000000000000000e+00  9.8388862424442555e-03 1.0281546868591454e+00 0.0000000000000000e+00  9.2543353989394065e-03 1.0283263297410545e+00 0.0000000000000000e+00  8.7219396307892591e-03 1.0284726506014334e+00 0.0000000000000000e+00  8.1191193189598509e-03 1.0286270083099684e+00 0.0000000000000000e+00  7.5778105476530938e-03 1.0287555318896666e+00 0.0000000000000000e+00  6.9866669381454102e-03 1.0288851512277737e+00 0.0000000000000000e+00  6.4077886511645079e-03 1.0290013650788197e+00 0.0000000000000000e+00  5.8492942257970118e-03 1.0291035620463522e+00 0.0000000000000000e+00  5.2366474938673373e-03 1.0292045866379587e+00 0.0000000000000000e+00  4.6900101266620659e-03 1.0292850380773253e+00 0.0000000000000000e+00  4.0734525080387760e-03 1.0293649171799919e+00 0.0000000000000000e+00  3.5082553158822700e-03 1.0294281065820083e+00 0.0000000000000000e+00  2.9182337242491252e-03 1.0294839017525883e+00 0.0000000000000000e+00  2.3125203328794755e-03 1.0295304386223085e+00 0.0000000000000000e+00  1.7540316348165941e-03 1.0295637499714347e+00 0.0000000000000000e+00  1.1283768290709228e-03 1.0295901729716186e+00 0.0000000000000000e+00  5.7241017940134163e-04 1.0296040175332215e+00 0.0000000000000000e+00  -4.2166932076428107e-05 1.0296087872260316e+00 0.0000000000000000e+00  -6.2632711796514642e-04 1.0296030714131268e+00 0.0000000000000000e+00  -1.2033515683382014e-03 1.0295876125332144e+00 0.0000000000000000e+00  -1.8213522097040584e-03 1.0295602213765569e+00 0.0000000000000000e+00  -2.3746186157189613e-03 1.0295261665762536e+00 0.0000000000000000e+00  -2.9975876346176539e-03 1.0294769997938751e+00 0.0000000000000000e+00  -3.5578813953447228e-03 1.0294229406387261e+00 0.0000000000000000e+00  -4.1549172982781784e-03 1.0293550194309435e+00 0.0000000000000000e+00  -4.7487044019225138e-03 1.0292768346020122e+00 0.0000000000000000e+00  -5.3057859938954325e-03 1.0291937621406060e+00 0.0000000000000000e+00  -5.9203783527214003e-03 1.0290910920016054e+00 0.0000000000000000e+00  -6.4634748232175188e-03 1.0289906426550455e+00 0.0000000000000000e+00  -7.0681882198180184e-03 1.0288679366753284e+00 0.0000000000000000e+00  -7.6274109565321272e-03 1.0287441483339812e+00 0.0000000000000000e+00  -8.1939924030636074e-03 1.0286084834230917e+00 0.0000000000000000e+00  -8.7839575710576077e-03 1.0284560914999732e+00 0.0000000000000000e+00  -9.3164614890970943e-03 1.0283086371597665e+00 0.0000000000000000e+00  -9.9120523905281335e-03 1.0281323826992286e+00 0.0000000000000000e+00  -1.0439992669773048e-02 1.0279659616190355e+00 0.0000000000000000e+00  -1.1011739535786290e-02 1.0277747164879860e+00 0.0000000000000000e+00  -1.1562650023593111e-02 1.0275793791972514e+00 0.0000000000000000e+00  -1.2090454099107004e-02 1.0273818250849103e+00 0.0000000000000000e+00  -1.2660961393239327e-02 1.0271565582508044e+00 0.0000000000000000e+00  -1.3164563038445218e-02 1.0269473368003701e+00 0.0000000000000000e+00  -1.3726395570922487e-02 1.0267021387023705e+00 0.0000000000000000e+00  -1.4233850605995536e-02 1.0264697019115996e+00 0.0000000000000000e+00  -1.4759760708781790e-02 1.0262175047610598e+00 0.0000000000000000e+00  -1.5290657842000418e-02 1.0259508915535769e+00 0.0000000000000000e+00  -1.5775991868942529e-02 1.0256962586117884e+00 0.0000000000000000e+00  -1.6312219596952223e-02 1.0254024072074381e+00 0.0000000000000000e+00  -1.6782593885666684e-02 1.0251334632139248e+00 0.0000000000000000e+00  -1.7297435357902017e-02 1.0248266749502681e+00 0.0000000000000000e+00  -1.7778449594399594e-02 1.0245278844138355e+00 0.0000000000000000e+00  -1.8250219940417586e-02 1.0242229804151151e+00 0.0000000000000000e+00  -1.8746880080466682e-02 1.0238887834027810e+00 0.0000000000000000e+00  -1.9186634405453151e-02 1.0235811026944845e+00 0.0000000000000000e+00  -1.9675260453551145e-02 1.0232256730671909e+00 0.0000000000000000e+00  -2.0107800234128080e-02 1.0228986062706940e+00 0.0000000000000000e+00  -2.0564543730384219e-02 1.0225399447807209e+00 0.0000000000000000e+00  -2.1009958279911502e-02 1.0221763932846131e+00 0.0000000000000000e+00  -2.1424034728477113e-02 1.0218255766383073e+00 0.0000000000000000e+00  -2.1873012711652769e-02 1.0214304623375929e+00 0.0000000000000000e+00  -2.2264083275937780e-02 1.0210731456615743e+00 0.0000000000000000e+00  -2.2693858132344837e-02 1.0206655058853098e+00 0.0000000000000000e+00  -2.3083443118895819e-02 1.0202816572730466e+00 0.0000000000000000e+00  -2.3474505080653345e-02 1.0198817975691818e+00 0.0000000000000000e+00  -2.3872896809456007e-02 1.0194584819877082e+00 0.0000000000000000e+00  -2.4227871223324291e-02 1.0190668356887318e+00 0.0000000000000000e+00  -2.4617770123156725e-02 1.0186198434948699e+00 0.0000000000000000e+00  -2.4956808718523436e-02 1.0182158422066017e+00 0.0000000000000000e+00  -2.5319029332751129e-02 1.0177672796841417e+00 0.0000000000000000e+00  -2.5659433833837033e-02 1.0173285573856083e+00 0.0000000000000000e+00  -2.5981613861293554e-02 1.0168967529868020e+00 0.0000000000000000e+00  -2.6321435117314142e-02 1.0164223571777162e+00 0.0000000000000000e+00  -2.6615842616281801e-02 1.0159942809800027e+00 0.0000000000000000e+00  -2.6937743965460472e-02 1.0155063889911904e+00 0.0000000000000000e+00  -2.7220949862755653e-02 1.0150584042684054e+00 0.0000000000000000e+00  -2.7509844965130092e-02 1.0145815289087725e+00 0.0000000000000000e+00  -2.7792458522439920e-02 1.0140935607157768e+00 0.0000000000000000e+00  -2.8045947912483327e-02 1.0136358712889375e+00 0.0000000000000000e+00  -2.8318050314534556e-02 1.0131210815289435e+00 0.0000000000000000e+00  -2.8550156295389734e-02 1.0126604809284359e+00 0.0000000000000000e+00  -2.8797957270805224e-02 1.0121441119460131e+00 0.0000000000000000e+00  -2.9020962219036207e-02 1.0116548376341468e+00 0.0000000000000000e+00  -2.9234777934627424e-02 1.0111607929354176e+00 0.0000000000000000e+00  -2.9450813487307999e-02 1.0106331683190071e+00 0.0000000000000000e+00  -2.9636032055693557e-02 1.0101545227087596e+00 0.0000000000000000e+00  -2.9834027164891148e-02 1.0096115008998821e+00 0.0000000000000000e+00  -3.0001662785251803e-02 1.0091220135788332e+00 0.0000000000000000e+00  -3.0172274700776547e-02 1.0085904946913069e+00 0.0000000000000000e+00  -3.0329461992038398e-02 1.0080650242032716e+00 0.0000000000000000e+00  -3.0469453957623301e-02 1.0075618599123239e+00 0.0000000000000000e+00  -3.0612202209824118e-02 1.0070064967780308e+00 0.0000000000000000e+00  -3.0729225379976521e-02 1.0065112812473409e+00 0.0000000000000000e+00  -3.0849677875503152e-02 1.0059531298532538e+00 0.0000000000000000e+00  -3.0950148282225736e-02 1.0054383733621461e+00 0.0000000000000000e+00  -3.1043690075108519e-02 1.0049046135529107e+00 0.0000000000000000e+00  -3.1129234319098222e-02 1.0043520662343599e+00 0.0000000000000000e+00  -3.1197756291882130e-02 1.0038447394465937e+00 0.0000000000000000e+00  -3.1263416658930718e-02 1.0032745429107537e+00 0.0000000000000000e+00  -3.1311838982939065e-02 1.0027668476024796e+00 0.0000000000000000e+00  -3.1354334232634770e-02 1.0022070642635277e+00 0.0000000000000000e+00  -3.1384366795155931e-02 1.0016712036099769e+00 0.0000000000000000e+00  -3.1403764832934562e-02 1.0011449836485966e+00 0.0000000000000000e+00  -3.1413514146385539e-02 1.0005778905513898e+00 0.0000000000000000e+00  -3.1412448979960608e-02 1.0000707724193005e+00 0.0000000000000000e+00  -3.1400188385184803e-02 9.9949909324867725e-01 0.0000000000000000e+00  -3.1379052979742493e-02 9.9898296683046728e-01 0.0000000000000000e+00  -3.1346146270275342e-02 9.9843489464511337e-01 0.0000000000000000e+00  -3.1302377216668571e-02 9.9788607429200815e-01 0.0000000000000000e+00  -3.1251624178575042e-02 9.9737284156990491e-01 0.0000000000000000e+00  -3.1184296206042648e-02 9.9680443445335332e-01 0.0000000000000000e+00  -3.1114943297348062e-02 9.9630157419028520e-01 0.0000000000000000e+00  -3.1026849559902099e-02 9.9574167407384429e-01 0.0000000000000000e+00  -3.0934647077083703e-02 9.9522137366326713e-01 0.0000000000000000e+00  -3.0831311305002395e-02 9.9469576481827415e-01 0.0000000000000000e+00  -3.0712063373698650e-02 9.9414553399463623e-01 0.0000000000000000e+00  -3.0594678034173220e-02 9.9364916812322845e-01 0.0000000000000000e+00  -3.0451882461970860e-02 9.9309265850366968e-01 0.0000000000000000e+00  -3.0314924146160500e-02 9.9259805035042248e-01 0.0000000000000000e+00  -3.0155860619516382e-02 9.9206260156819748e-01 0.0000000000000000e+00  -2.9990998983531754e-02 9.9154413902534289e-01 0.0000000000000000e+00  -2.9823081751453921e-02 9.9104796838912945e-01 0.0000000000000000e+00  -2.9629448820267947e-02 9.9050952599385167e-01 0.0000000000000000e+00  -2.9448236632932355e-02 9.9003358666205687e-01 0.0000000000000000e+00  -2.9234328170818776e-02 9.8950166221408953e-01 0.0000000000000000e+00  -2.9029854922216158e-02 9.8901950322765064e-01 0.0000000000000000e+00  -2.8807085379692985e-02 9.8851976