<?xml version="1.0"?>
<VTKFile type="UnstructuredGrid"  version="0.1"  >
<UnstructuredGrid>
<Piece  NumberOfPoints="4281" NumberOfCells="6778">
<Points>
<DataArray  type="Float64"  NumberOfComponents="3"  format="ascii">0 0.01 0  10 0.01 0  0 1.023967135573201 0  10 1.023967135573201 0  0.007129524987038337 0.009997491741717768 0  0.01258064459049757 0.00999219056738478 0  0.01872173241756402 0.009982708334120727 0  0.02429919625640796 0.009970876572043954 0  0.03017238705920286 0.009955108531615313 0  0.03612352734296466 0.0099356743715591 0  0.04164979236492252 0.009914517792428084 0  0.04780928449023854 0.009887415768096998 0  0.05327287671237849 0.009860276931383746 0  0.0593436395885565 0.009826715421083503 0  0.06505608699933001 0.009791870631895848 0  0.07077243060783153 0.009753845329312128 0  0.07684085351634186 0.009710036052663748 0  0.08230528612367993 0.009667566921662384 0  0.08846525752759338 0.009616276826848907 0  0.09398926586603956 0.0095672187064786 0  0.09994377871281757 0.009511110804477986 0  0.10581288515308 0.009452550633355501 0  0.1113930001121819 0.009393893683773193 0  0.1175326299024069 0.009326020378011352 0  0.122983161250664 0.009262856809916281 0  0.1290978349347763 0.009188765415777931 0  0.1347300222736412 0.00911751981665075 0  0.1405327472005438 0.009041131768776852 0  0.1465421455697866 0.008958856277281909 0  0.1520341809431761 0.008880870879718691 0  0.1581991754706344 0.00879018143976357 0  0.1636834803794234 0.008706732874359017 0  0.1697073563005918 0.008612096527554045 0  0.1754901396361989 0.008518345936558386 0  0.1811391035120075 0.008424050210098115 0  0.1872444279222087 0.00831915423323064 0  0.1926961446341008 0.008222899998379215 0  0.198841090009393 0.008111516418624823 0  0.2044064770158165 0.008008028244452866 0  0.2102948627703611 0.007895869216798803 0  0.2162299794791283 0.007780085801116003 0  0.2217647046821167 0.007669675498109103 0  0.2279204403470532 0.007544154739747676 0  0.2333791472114919 0.007430485124751003 0  0.2394590817234977 0.0073013084386626 0  0.245152498789355 0.007177928079207972 0  0.2508861115607116 0.007051356111670669 0  0.2569419868439766 0.006915186417023598 0  0.2624099649457279 0.006790084113692359 0  0.2685711825796066 0.006646722567663751 0  0.274083748205357 0.006516341894728842 0  0.2800541704182985 0.00637292855786236 0  0.2859022845836161 0.006230279166502627 0  0.291495955429921 0.006091868246150131 0  0.2976275706217687 0.005937986548763313 0  0.3030757324287757 0.005799406374294222 0  0.3091980118239236 0.005641654227187252 0  0.3148109405089491 0.005495191514879527 0  0.3206341933715942 0.005341435282378838 0  0.3266248575896781 0.005181393525330103 0  0.3321252080346692 0.005032833254881577 0  0.3382880718234609 0.004864596209960478 0  0.3437628463580178 0.004713611578807419 0  0.3498021006600692 0.004545443593512952 0  0.3555594631656461 0.004383601001460968 0  0.3612291099056053 0.004222822711549606 0  0.3673210805066339 0.004048576418709386 0  0.3727746135437823 0.003891330909934085 0  0.3789246700786391 0.003712634483246944 0  0.3844721023230384 0.00355025746928806 0  0.3903845048135511 0.003376011435332509 0  0.3962935688476314 0.003200699755406988 0  0.4018430601204535 0.00303505085978487 0  0.4079921977692303 0.002850427660455144 0  0.4134449905916002 0.002685819499171436 0  0.4195385366679084 0.002500937932218923 0  0.425204482428441 0.002328206591247292 0  0.4309651825948974 0.00215183074136113 0  0.4370014133195289 0.001966263547608745 0  0.4424769325836848 0.00179732019881714 0  0.4486395183564056 0.001606544730410899 0  0.4541373275735043 0.001435838569361521 0  0.4601308451156257 0.001249254088784412 0  0.4659488863550298 0.001067707976620331 0  0.471564807260988 0.0008921302908496037 0  0.4776843759254726 0.0007004920228137959 0  0.4831317484445766 0.0005296836585198918 0  0.4892643513384632 0.0003372062279158936 0  0.4948528283485032 0.000161696161435303 0  0.5007056813361916 -2.216943068070812e-05 0  0.5066699093509902 -0.000209526046556915 0  0.5121845298566023 -0.0003826949545447442 0  0.5183439831944545 -0.0005759742926309219 0  0.5238088617282698 -0.0007472800272428554 0  0.5298681543527348 -0.0009369594486414562 0  0.5355929349139432 -0.001115856450691032 0  0.5412927239341832 -0.001293613669039852 0  0.5473668732672543 -0.001482588207084091 0  0.5528259073001393 -0.001651967505962102 0  0.5589819336317072 -0.001842386787779294 0  0.5645100189486582 -0.002012797049529044 0  0.5704524332663232 -0.002195301346534757 0  0.5763298911552834 -0.002375058665203144 0  0.5819006708717119 -0.002544689651648297 0  0.5880413281562127 -0.002730768313747055 0  0.5934904284812221 -0.002895042191696308 0  0.5995995320960693 -0.003078202338538874 0  0.605236779888003 -0.003246210954182579 0  0.6110299855290301 -0.003417806240976177 0  0.6170432999212266 -0.00359472323302265 0  0.6225307972792151 -0.00375505261922207 0  0.6286944373476531 -0.003933803567825084 0  0.6341794289295242 -0.004091634709336539 0  0.6401977648984302 -0.004263413669385436 0  0.6459846030577213 -0.004427148756161272 0  0.6516277670629291 -0.004585409549508515 0  0.6577342305863492 -0.004755038487876419 0  0.6631843111407589 -0.004904958327357115 0  0.6693271588517591 -0.005072208653571043 0  0.6748942591145469 -0.005222152905474348 0  0.6807781354428797 -0.005378892074409919 0  0.6867158102497221 -0.005535201343768038 0  0.6922478556369909 -0.005679100421160843 0  0.6984036264198542 -0.005837205328254034 0  0.7038624132928571 -0.005975584427524931 0  0.7099402809449575 -0.006127588021236129 0  0.7156361945945205 -0.006268012368771779 0  0.7213667017809595 -0.006407263887957157 0  0.7274241898103784 -0.006552202568912044 0  0.7328913375361901 -0.006680980644346233 0  0.7390522654079078 -0.006823736587757829 0  0.7445663161830813 -0.006949337256267011 0  0.7505345306161221 -0.007082931996795786 0  0.7563856967966242 -0.007211490056377221 0  0.7619775509571868 -0.007332073958440476 0  0.7681106054434813 -0.007461725199742056 0  0.7735594228940573 -0.007574589702563127 0  0.7796809699364847 -0.007698739982391196 0  0.7852974086111042 -0.007810142587226769 0  0.7911178568436495 -0.007923025648348906 0  0.797112403703894 -0.008036515862006795 0  0.8026119630288198 -0.008138129173272899 0  0.8087760180262171 -0.008249131188213875 0  0.814253500572072 -0.008345174877796967 0  0.8202905515677629 -0.008448166667805387 0  0.8260544286221699 -0.008543663134562481 0  0.831720415905675 -0.008634807324656511 0  0.8378167080097026 -0.008729817306667463 0  0.8432709709919499 -0.008812108559864256 0  0.8494209576248264 -0.008901791974276371 0  0.8549745826348545 -0.008979924427376591 0  0.8608814329347291 -0.009060026011188804 0  0.8667998142885592 -0.009137155111096256 0  0.8723460990452367 -0.009206568509458774 0  0.8784989383774584 -0.009280301817794542 0  0.8839552890388401 -0.009342788637451834 0  0.8900456692707091 -0.009409293585850673 0  0.8957233874467343 -0.009468190513990782 0  0.9014754209053449 -0.009524786393944277 0  0.9075213579987256 -0.009580921173179099 0  0.9129954731058688 -0.009628765913494807 0  0.9191593188847452 -0.009679229788646495 0  0.9246655330424429 -0.009721240864333262 0  0.9306503084472221 -0.009763603884533442 0  0.9364847200361547 -0.009801580348484516 0  0.9420914259676206 -0.009834972127394636 0  0.948219177636862 -0.009867976960504428 0  0.9536688877131657 -0.009894257783109666 0  0.9597979104438458 -0.009920349306153329 0  0.9654020314719589 -0.009940987600901847 0  0.9712398170272581 -0.009959209624459757 0  0.9772219132298864 -0.009974407121723252 0  0.9827297975109929 -0.009985285083248089 0  0.9888934840407251 -0.009993913310034224 0  0.9943667421923366 -0.009998434045983932 0  1.000414962337846 -0.009999991502249178 0  1.00616395254491 -0.009998125110441144 0  1.011844857354635 -0.009993077234903055 0  1.017933801412069 -0.009984132829796667 0  1.023390946643176 -0.00997301205183276 0  1.029544679732296 -0.009956955598792184 0  1.035089558108845 -0.009939300412459717 0  1.041010936359372 -0.009917116481575694 0  1.04691554237944 -0.00989157814857561 0  1.052471258615448 -0.009864440751261633 0  1.05862104751389 -0.009830897850136421 0  1.064075481579663 -0.009798076706746352 0  1.070173358231585 -0.009757978136698224 0  1.075837941143087 -0.00971752009646258 0  1.081604377355612 -0.009673173917302162 0  1.087640686528322 -0.009623351755525641 0  1.093119387704205 -0.009575135453199036 0  1.099284093826516 -0.009517491101966447 0  1.104783734376909 -0.009463052176492596 0  1.110779897618174 -0.009400480030121557 0  1.116599992234411 -0.00933655469875222 0  1.122217899723542 -0.009271889359757672 0  1.128339818747432 -0.009198135031144493 0  1.133789446190431 -0.00912961705214143 0  1.139923317158062 -0.009049295973540348 0  1.145515844317945 -0.008973134373133167 0  1.151367773813766 -0.008890475161473248 0  1.157336906671575 -0.008803064948780913 0  1.16285160438384 -0.008719557366803981 0  1.16901331600552 -0.008623157866544266 0  1.174481522907442 -0.00853490108265173 0  1.180539122189597 -0.008434191931863186 0  1.186271617394136 -0.008336073959344166 0  1.191966996821913 -0.008235914041393521 0  1.198046448076202 -0.008126091334838595 0  1.203505695906331 -0.008024945109277802 0  1.209661806077474 -0.007908057515838151 0  1.21519584913737 -0.007800455577732041 0  1.221132109188887 -0.00768241304184519 0  1.227019087412133 -0.007562711583992629 0  1.232585135446325 -0.007447155722966398 0  1.238729389023077 -0.007316953404904543 0  1.244180486899644 -0.007199156086382225 0  1.250286093435722 -0.007064709646262071 0  1.255932842016573 -0.006938052500145445 0  1.261716857103797 -0.006806053534187844 0  1.26773845151126 -0.006666245775332091 0  1.273222687278595 -0.006536836953056475 0  1.279386853652711 -0.00638906998029936 0  1.284876650734994 -0.006255450389977176 0  1.290887326898431 -0.00610702037198264 0  1.296685536664392 -0.00596177282270944 0  1.30231949087952 -0.005818744638503708 0  1.308431215520824
[...]
<PointData  Vectors="Velocity"> 
<DataArray  type="Float64"  Name="Velocity"  NumberOfComponents="3" format="ascii">-1.2640627401170947e-09 9.7039118676503799e-01 0.0000000000000000e+00  -1.2640627401170947e-09 9.7039118676503799e-01 0.0000000000000000e+00  2.6774764250758020e-06 -3.4834231059522283e-02 0.0000000000000000e+00  2.6774764250758020e-06 -3.4834231059522283e-02 0.0000000000000000e+00  6.8276916085478095e-04 9.7039837325189027e-01 0.0000000000000000e+00  1.2046099691715229e-03 9.7041356190775052e-01 0.0000000000000000e+00  1.7921088239929511e-03 9.7044073059942149e-01 0.0000000000000000e+00  2.3251659811871139e-03 9.7047463240287646e-01 0.0000000000000000e+00  2.8857803930285499e-03 9.7051981479104577e-01 0.0000000000000000e+00  3.4529208030881272e-03 9.7057550524334679e-01 0.0000000000000000e+00  3.9785891505212043e-03 9.7063613546535510e-01 0.0000000000000000e+00  4.5631958910862533e-03 9.7071380995897605e-01 0.0000000000000000e+00  5.0804551651473275e-03 9.7079159647777435e-01 0.0000000000000000e+00  5.6535892991586749e-03 9.7088780114339113e-01 0.0000000000000000e+00  6.1911841508812447e-03 9.7098769529798068e-01 0.0000000000000000e+00  6.7273231570761406e-03 9.7109671998592229e-01 0.0000000000000000e+00  7.2943107398086918e-03 9.7122234431630738e-01 0.0000000000000000e+00  7.8027986965878114e-03 9.7134414213396048e-01 0.0000000000000000e+00  8.3734814847695495e-03 9.7149125981737328e-01 0.0000000000000000e+00  8.8828126005116737e-03 9.7163199780450638e-01 0.0000000000000000e+00  9.4290913466547506e-03 9.7179298653298440e-01 0.0000000000000000e+00  9.9645790451712828e-03 9.7196104194866673e-01 0.0000000000000000e+00  1.0470824129606711e-02 9.7212940664646386e-01 0.0000000000000000e+00  1.1024416304551147e-02 9.7232426408746986e-01 0.0000000000000000e+00  1.1512728128874833e-02 9.7250563745772034e-01 0.0000000000000000e+00  1.2056846386385213e-02 9.7271843645602618e-01 0.0000000000000000e+00  1.2554419416088132e-02 9.7292310938089832e-01 0.0000000000000000e+00  1.3063279045428963e-02 9.7314260652313511e-01 0.0000000000000000e+00  1.3586052162831649e-02 9.7337907987352579e-01 0.0000000000000000e+00  1.4059924279487270e-02 9.7360327990606410e-01 0.0000000000000000e+00  1.4587262765767174e-02 9.7386407269109787e-01 0.0000000000000000e+00  1.5052141893397103e-02 9.7410410933550584e-01 0.0000000000000000e+00  1.5558003364512000e-02 9.7437640357315647e-01 0.0000000000000000e+00  1.6038781136169161e-02 9.7464623024308539e-01 0.0000000000000000e+00  1.6503708442830427e-02 9.7491770736282790e-01 0.0000000000000000e+00  1.7000785449128735e-02 9.7521979774439171e-01 0.0000000000000000e+00  1.7439760098888073e-02 9.7549708870139362e-01 0.0000000000000000e+00  1.7928860567684949e-02 9.7581807130241249e-01 0.0000000000000000e+00  1.8366488916152206e-02 9.7611640348170370e-01 0.0000000000000000e+00  1.8823834148731847e-02 9.7643984221913027e-01 0.0000000000000000e+00  1.9278750830215342e-02 9.7677385352167301e-01 0.0000000000000000e+00  1.9697358934436165e-02 9.7709248013314609e-01 0.0000000000000000e+00  2.0156414389728483e-02 9.7745484946625227e-01 0.0000000000000000e+00  2.0557613670687626e-02 9.7778313031469366e-01 0.0000000000000000e+00  2.0997818934350328e-02 9.7815634057667133e-01 0.0000000000000000e+00  2.1403552431444085e-02 9.7851294888807927e-01 0.0000000000000000e+00  2.1805671532975128e-02 9.7887892849170133e-01 0.0000000000000000e+00  2.2223191491076540e-02 9.7927282470888621e-01 0.0000000000000000e+00  2.2593699005262896e-02 9.7963485742618306e-01 0.0000000000000000e+00  2.3003671733450831e-02 9.8004990994244945e-01 0.0000000000000000e+00  2.3363616551340064e-02 9.8042754710247892e-01 0.0000000000000000e+00  2.3746009813279626e-02 9.8084311405057922e-01 0.0000000000000000e+00  2.4112934238949356e-02 9.8125665719904676e-01 0.0000000000000000e+00  2.4456704610731621e-02 9.8165809536832860e-01 0.0000000000000000e+00  2.4825328906759595e-02 9.8210461366805046e-01 0.0000000000000000e+00  2.5145552503603702e-02 9.8250692011605789e-01 0.0000000000000000e+00  2.5497061008816317e-02 9.8296510334259768e-01 0.0000000000000000e+00  2.5811457169111856e-02 9.8339070666591566e-01 0.0000000000000000e+00  2.6129577314550931e-02 9.8383772019767202e-01 0.0000000000000000e+00  2.6448151136052575e-02 9.8430324288644588e-01 0.0000000000000000e+00  2.6732788751612700e-02 9.8473558471357314e-01 0.0000000000000000e+00  2.7042655021029354e-02 9.8522544190184103e-01 0.0000000000000000e+00  2.7309799311328278e-02 9.8566529262254510e-01 0.0000000000000000e+00  2.7595510702202460e-02 9.8615545477784849e-01 0.0000000000000000e+00  2.7859020396385013e-02 9.8662743343255521e-01 0.0000000000000000e+00  2.8109960741484939e-02 9.8709655500325189e-01 0.0000000000000000e+00  2.8370033385303813e-02 9.8760525022494028e-01 0.0000000000000000e+00  2.8594362128712879e-02 9.8806455996324805e-01 0.0000000000000000e+00  2.8837624440042415e-02 9.8858681420848227e-01 0.0000000000000000e+00  2.9048130589698577e-02 9.8906163845580364e-01 0.0000000000000000e+00  2.9263086389917065e-02 9.8957144947458286e-01 0.0000000000000000e+00  2.9468144354258076e-02 9.9008467057126115e-01 0.0000000000000000e+00  2.9651749509878166e-02 9.9056987563491750e-01 0.0000000000000000e+00  2.9844958151878247e-02 9.9111096897507578e-01 0.0000000000000000e+00  3.0007217116583523e-02 9.9159367799177578e-01 0.0000000000000000e+00  3.0178379210294037e-02 9.9213614862779675e-01 0.0000000000000000e+00  3.0327838536987652e-02 9.9264326724465923e-01 0.0000000000000000e+00  3.0470159449043601e-02 9.9316138321169511e-01 0.0000000000000000e+00  3.0608793370142395e-02 9.9370682334044869e-01 0.0000000000000000e+00  3.0725204389754242e-02 9.9420368997170772e-01 0.0000000000000000e+00  3.0845531570241363e-02 9.9476509948523661e-01 0.0000000000000000e+00  3.0943270658450182e-02 9.9526774981110377e-01 0.0000000000000000e+00  3.1039446316824364e-02 9.9581747763343353e-01 0.0000000000000000e+00  3.1122411582624222e-02 9.9635268623615636e-01 0.0000000000000000e+00  3.1192732571030529e-02 9.9687060706245079e-01 0.0000000000000000e+00  3.1258408254711850e-02 9.9743624714525758e-01 0.0000000000000000e+00  3.1307219620103181e-02 9.9794070774807686e-01 0.0000000000000000e+00  3.1351258565549066e-02 9.9850950875618660e-01 0.0000000000000000e+00  3.1381297052916778e-02 9.9902848674256550e-01 0.0000000000000000e+00  3.1402414377697613e-02 9.9957249654019753e-01 0.0000000000000000e+00  3.1413021601616478e-02 1.0001271771340974e+00 0.0000000000000000e+00  3.1413005052764890e-02 1.0006401625476737e+00 0.0000000000000000e+00  3.1401813124024007e-02 1.0012130729403470e+00 0.0000000000000000e+00  3.1382002938907236e-02 1.0017211595035724e+00 0.0000000000000000e+00  3.1349159769115620e-02 1.0022840802259096e+00 0.0000000000000000e+00  3.1307621016304257e-02 1.0028153293971394e+00 0.0000000000000000e+00  3.1256110580093269e-02 1.0033435104300579e+00 0.0000000000000000e+00  3.1190069762987386e-02 1.0039053671119098e+00 0.0000000000000000e+00  3.1120909200618267e-02 1.0044092652220991e+00 0.0000000000000000e+00  3.1031786679493672e-02 1.0049761004576052e+00 0.0000000000000000e+00  3.0941711199839662e-02 1.0054836821560136e+00 0.0000000000000000e+00  3.0834301004769367e-02 1.0060276092865699e+00 0.0000000000000000e+00  3.0717298435689096e-02 1.0065636756761240e+00 0.0000000000000000e+00  3.0596539854081305e-02 1.0070698428880525e+00 0.0000000000000000e+00  3.0452332919396582e-02 1.0076254227713126e+00 0.0000000000000000e+00  3.0314654915465339e-02 1.0081161896362201e+00 0.0000000000000000e+00  3.0149475382960433e-02 1.0086637003047669e+00 0.0000000000000000e+00  2.9986941070838803e-02 1.0091662189411053e+00 0.0000000000000000e+00  2.9809838768379608e-02 1.0096797613045172e+00 0.0000000000000000e+00  2.9615256006218484e-02 1.0102095427594620e+00 0.0000000000000000e+00  2.9428178128445857e-02 1.0106899264380365e+00 0.0000000000000000e+00  2.9207281487999077e-02 1.0112258155251808e+00 0.0000000000000000e+00  2.9001183071257510e-02 1.0116992593333969e+00 0.0000000000000000e+00  2.8764783854684336e-02 1.0122148305935768e+00 0.0000000000000000e+00  2.8527420289694471e-02 1.0127065398856183e+00 0.0000000000000000e+00  2.8286521395014849e-02 1.0131820718226301e+00 0.0000000000000000e+00  2.8015428707515434e-02 1.0136920474176079e+00 0.0000000000000000e+00  2.7764410503288765e-02 1.0141430143621177e+00 0.0000000000000000e+00  2.7471301666438002e-02 1.0146463861361490e+00 0.0000000000000000e+00  2.7196435800441614e-02 1.0150979178733497e+00 0.0000000000000000e+00  2.6896478109419891e-02 1.0155701592240174e+00 0.0000000000000000e+00  2.6584021685443250e-02 1.0160413575231833e+00 0.0000000000000000e+00  2.6284182231307421e-02 1.0164753684936134e+00 0.0000000000000000e+00  2.5940761514925810e-02 1.0169524731365152e+00 0.0000000000000000e+00  2.5627664940814612e-02 1.0173702660843644e+00 0.0000000000000000e+00  2.5269725392600480e-02 1.0178294224855127e+00 0.0000000000000000e+00  2.4925474577603603e-02 1.0182538151198834e+00 0.0000000000000000e+00  2.4570646209400065e-02 1.0186748666905256e+00 0.0000000000000000e+00  2.4186405440318214e-02 1.0191133295047643e+00 0.0000000000000000e+00  2.3831670861803128e-02 1.0195030865690144e+00 0.0000000000000000e+00  2.3422991467728815e-02 1.0199353527079449e+00 0.0000000000000000e+00  2.3049328763976199e-02 1.0203158496706948e+00 0.0000000000000000e+00  2.2636613466537728e-02 1.0207207451723519e+00 0.0000000000000000e+00  2.2223788101573019e-02 1.0211105516178554e+00 0.0000000000000000e+00  2.1821794924661249e-02 1.0214763377569978e+00 0.0000000000000000e+00  2.1372652491362627e-02 1.0218698002244193e+00 0.0000000000000000e+00  2.0966523435256096e-02 1.0222124625269806e+00 0.0000000000000000e+00  2.0502433352374741e-02 1.0225895437576662e+00 0.0000000000000000e+00  2.0069505276889159e-02 1.0229280455943426e+00 0.0000000000000000e+00  1.9613809343806642e-02 1.0232711798234284e+00 0.0000000000000000e+00  1.9137143932573496e-02 1.0236162952020504e+00 0.0000000000000000e+00  1.8693441672077940e-02 1.0239254087971312e+00 0.0000000000000000e+00  1.8189024289796438e-02 1.0242632092280914e+00 0.0000000000000000e+00  1.7734643074351311e-02 1.0245555944477938e+00 0.0000000000000000e+00  1.7227312060437244e-02 1.0248692399731467e+00 0.0000000000000000e+00  1.6736721046067306e-02 1.0251601599263322e+00 0.0000000000000000e+00  1.6248703642049785e-02 1.0254379123630952e+00 0.0000000000000000e+00  1.5717438433500278e-02 1.0257275394635146e+00 0.0000000000000000e+00  1.5236852998999991e-02 1.0259784722368483e+00 0.0000000000000000e+00  1.4689186962262719e-02 1.0262520284157330e+00 0.0000000000000000e+00  1.4189536667391400e-02 1.0264904217419211e+00 0.0000000000000000e+00  1.3652993278082289e-02 1.0267348907885108e+00 0.0000000000000000e+00  1.3110306608628112e-02 1.0269703522826679e+00 0.0000000000000000e+00  1.2597287679179801e-02 1.0271823133549907e+00 0.0000000000000000e+00  1.2023329870245920e-02 1.0274075226175030e+00 0.0000000000000000e+00  1.1510267092520593e-02 1.0275984265771190e+00 0.0000000000000000e+00  1.0933265968311737e-02 1.0278016518590050e+00 0.0000000000000000e+00  1.0391449743127992e-02 1.0279816681739364e+00 0.0000000000000000e+00  9.8388862511676490e-03 1.0281546868591649e+00 0.0000000000000000e+00  9.2543354041350594e-03 1.0283263297410010e+00 0.0000000000000000e+00  8.7219396373369677e-03 1.0284726506014235e+00 0.0000000000000000e+00  8.1191193327370525e-03 1.0286270083097646e+00 0.0000000000000000e+00  7.5778105585327729e-03 1.0287555318895225e+00 0.0000000000000000e+00  6.9866669581050500e-03 1.0288851512274535e+00 0.0000000000000000e+00  6.4077886677554432e-03 1.0290013650786491e+00 0.0000000000000000e+00  5.8492942368223938e-03 1.0291035620463302e+00 0.0000000000000000e+00  5.2366475129138430e-03 1.0292045866378505e+00 0.0000000000000000e+00  4.6900101651474327e-03 1.0292850380773533e+00 0.0000000000000000e+00  4.0734525312162741e-03 1.0293649171800667e+00 0.0000000000000000e+00  3.5082553532840674e-03 1.0294281065822373e+00 0.0000000000000000e+00  2.9182337397020246e-03 1.0294839017527824e+00 0.0000000000000000e+00  2.3125203416380813e-03 1.0295304386223874e+00 0.0000000000000000e+00  1.7540316482234752e-03 1.0295637499715804e+00 0.0000000000000000e+00  1.1283768414556870e-03 1.0295901729718704e+00 0.0000000000000000e+00  5.7241018583180662e-04 1.0296040175333474e+00 0.0000000000000000e+00  -4.2166925289731434e-05 1.0296087872261985e+00 0.0000000000000000e+00  -6.2632711549310421e-04 1.0296030714131690e+00 0.0000000000000000e+00  -1.2033515655359001e-03 1.0295876125332648e+00 0.0000000000000000e+00  -1.8213522047013833e-03 1.0295602213766277e+00 0.0000000000000000e+00  -2.3746186129603936e-03 1.0295261665763420e+00 0.0000000000000000e+00  -2.9975876342259824e-03 1.0294769997939128e+00 0.0000000000000000e+00  -3.5578813970399028e-03 1.0294229406387643e+00 0.0000000000000000e+00  -4.1549173014854557e-03 1.0293550194309238e+00 0.0000000000000000e+00  -4.7487044036978281e-03 1.0292768346019971e+00 0.0000000000000000e+00  -5.3057859982645877e-03 1.0291937621405509e+00 0.0000000000000000e+00  -5.9203783616725049e-03 1.0290910920014753e+00 0.0000000000000000e+00  -6.4634748276182286e-03 1.0289906426549829e+00 0.0000000000000000e+00  -7.0681882261185939e-03 1.0288679366752338e+00 0.0000000000000000e+00  -7.6274109571896429e-03 1.0287441483339834e+00 0.0000000000000000e+00  -8.1939924050324041e-03 1.0286084834230664e+00 0.0000000000000000e+00  -8.7839575718320906e-03 1.0284560914999723e+00 0.0000000000000000e+00  -9.3164614905095807e-03 1.0283086371597450e+00 0.0000000000000000e+00  -9.9120523951429212e-03 1.0281323826991460e+00 0.0000000000000000e+00  -1.0439992676635887e-02 1.0279659616189141e+00 0.0000000000000000e+00  -1.1011739539394216e-02 1.0277747164879327e+00 0.0000000000000000e+00  -1.1562650025007042e-02 1.0275793791972383e+00 0.0000000000000000e+00  -1.2090454101906217e-02 1.0273818250848834e+00 0.0000000000000000e+00  -1.2660961394808662e-02 1.0271565582507984e+00 0.0000000000000000e+00  -1.3164563041296163e-02 1.0269473368003994e+00 0.0000000000000000e+00  -1.3726395574211790e-02 1.0267021387023372e+00 0.0000000000000000e+00  -1.4233850607397980e-02 1.0264697019117115e+00 0.0000000000000000e+00  -1.4759760710843731e-02 1.0262175047612541e+00 0.0000000000000000e+00  -1.5290657838379417e-02 1.0259508915539675e+00 0.0000000000000000e+00  -1.5775991875057807e-02 1.0256962586125802e+00 0.0000000000000000e+00  -1.6312219605662835e-02 1.0254024072079138e+00 0.0000000000000000e+00  -1.6782593904202441e-02 1.0251334632146094e+00 0.0000000000000000e+00  -1.7297435374283666e-02 1.0248266749505630e+00 0.0000000000000000e+00  -1.7778449601715561e-02 1.0245278844140064e+00 0.0000000000000000e+00  -1.8250219958266117e-02 1.0242229804154124e+00 0.0000000000000000e+00  -1.8746880092432850e-02 1.0238887834029440e+00 0.0000000000000000e+00  -1.9186634436272661e-02 1.0235811026947803e+00 0.0000000000000000e+00  -1.9675260470930135e-02 1.0232256730674019e+00 0.0000000000000000e+00  -2.0107800262524778e-02 1.0228986062702339e+00 0.0000000000000000e+00  -2.0564543757332625e-02 1.0225399447803640e+00 0.0000000000000000e+00  -2.1009958333056338e-02 1.0221763932838359e+00 0.0000000000000000e+00  -2.1424034780579023e-02 1.0218255766379887e+00 0.0000000000000000e+00  -2.1873012736341225e-02 1.0214304623375277e+00 0.0000000000000000e+00  -2.2264083291260162e-02 1.0210731456615756e+00 0.0000000000000000e+00  -2.2693858135232236e-02 1.0206655058852707e+00 0.0000000000000000e+00  -2.3083443130879778e-02 1.0202816572729951e+00 0.0000000000000000e+00  -2.3474505090092961e-02 1.0198817975690959e+00 0.0000000000000000e+00  -2.3872896812398320e-02 1.0194584819876744e+00 0.0000000000000000e+00  -2.4227871225384209e-02 1.0190668356886865e+00 0.0000000000000000e+00  -2.4617770123052506e-02 1.0186198434948404e+00 0.0000000000000000e+00  -2.4956808713064660e-02 1.0182158422065692e+00 0.0000000000000000e+00  -2.5319029329708337e-02 1.0177672796841191e+00 0.0000000000000000e+00  -2.5659433834396363e-02 1.0173285573855659e+00 0.0000000000000000e+00  -2.5981613871133243e-02 1.0168967529867312e+00 0.0000000000000000e+00  -2.6321435116470355e-02 1.0164223571777051e+00 0.0000000000000000e+00  -2.6615842625006866e-02 1.0159942809798725e+00 0.0000000000000000e+00  -2.6937743960247364e-02 1.0155063889911704e+00 0.0000000000000000e+00  -2.7220949856317900e-02 1.0150584042684432e+00 0.0000000000000000e+00  -2.7509844953359806e-02 1.0145815289088069e+00 0.0000000000000000e+00  -2.7792458517143567e-02 1.0140935607157915e+00 0.0000000000000000e+00  -2.8045947904040542e-02 1.0136358712889777e+00 0.0000000000000000e+00  -2.8318050308990646e-02 1.0131210815289402e+00 0.0000000000000000e+00  -2.8550156277286950e-02 1.0126604809287028e+00 0.0000000000000000e+00  -2.8797957259068321e-02 1.0121441119462167e+00 0.0000000000000000e+00  -2.9020962198889295e-02 1.0116548376345496e+00 0.0000000000000000e+00  -2.9234777924150024e-02 1.0111607929356567e+00 0.0000000000000000e+00  -2.9450813482014011e-02 1.0106331683190983e+00 0.0000000000000000e+00  -2.9636032046939639e-02 1.0101545227089461e+00 0.0000000000000000e+00  -2.9834027156500572e-02 1.0096115009000797e+00 0.0000000000000000e+00  -3.0001662783167255e-02 1.0091220135788774e+00 0.0000000000000000e+00  -3.0172274690570915e-02 1.0085904946915478e+00 0.0000000000000000e+00  -3.0329461988857720e-02 1.0080650242033458e+00 0.0000000000000000e+00  -3.0469453959022258e-02 1.0075618599122853e+00 0.0000000000000000e+00  -3.0612202205216918e-02 1.0070064967781409e+00 0.0000000000000000e+00  -3.0729225385029566e-02 1.0065112812472221e+00 0.0000000000000000e+00  -3.0849677900916628e-02 1.0059531298526581e+00 0.0000000000000000e+00  -3.0950148343821243e-02 1.0054383733606711e+00 0.0000000000000000e+00  -3.1043690118621313e-02 1.0049046135518542e+00 0.0000000000000000e+00  -3.1129234337149717e-02 1.0043520662339480e+00 0.0000000000000000e+00  -3.1197756325808113e-02 1.0038447394457877e+00 0.0000000000000000e+00  -3.1263416703918356e-02 1.0032745429098240e+00 0.0000000000000000e+00  -3.1311839022989382e-02 1.0027668476017759e+00 0.0000000000000000e+00  -3.1354334293578832e-02 1.0022070642622003e+00 0.0000000000000000e+00  -3.1384366862104017e-02 1.0016712036088700e+00 0.0000000000000000e+00  -3.1403765054038350e-02 1.0011449836449287e+00 0.0000000000000000e+00  -3.1413514238881814e-02 1.0005778905501890e+00 0.0000000000000000e+00  -3.1412449163574788e-02 1.0000707724174698e+00 0.0000000000000000e+00  -3.1400188502834138e-02 9.9949909324746811e-01 0.0000000000000000e+00  -3.1379053072610442e-02 9.9898296682922305e-01 0.0000000000000000e+00  -3.1346146403451389e-02 9.9843489464283397e-01 0.0000000000000000e+00  -3.1302377347699112e-02 9.9788607429038390e-01 0.0000000000000000e+00  -3.1251624458551362e-02 9.9737284156694817e-01 0.0000000000000000e+00  -3.1184296590519026e-02 9.9680443445080580e-01 0.0000000000000000e+00  -3.1114943373104716e-02 9.9630157418949628e-01 0.0000000000000000e+00  -3.1026849736544015e-02 9.9574167407238212e-01 0.0000000000000000e+00  -3.0934647438802206e-02 9.9522137366056129e-01 0.0000000000000000e+00  -3.0831311627459917e-02 9.9469576481420419e-01 0.0000000000000000e+00  -3.0712063577375739e-02 9.9414553399140648e-01 0.0000000000000000e+00  -3.0594678407914067e-02 9.9364916812034221e-01 0.0000000000000000e+00  -3.0451883087605283e-02 9.9309265849933659e-01 0.0000000000000000e+00  -3.0314924644899197e-02 9.9259805034444515e-01 0.0000000000000000e+00  -3.0155860832747752e-02 9.9206260156612103e-01 0.0000000000000000e+00  -2.9990999177482318e-02 9.9154413902371585e-01 0.0000000000000000e+00  -2.9823081870099386e-02 9.9104796838816300e-01 0.0000000000000000e+00  -2.9629449025355744e-02 9.9050952599221453e-01 0.0000000000000000e+00  -2.9448236743004633e-02 9.9003358666101438e-01 0.0000000000000000e+00  -2.9234328427309449e-02 9.8950166221155300e-01 0.0000000000000000e+00  -2.9029855039578601e-02 9.8901950322649401e-01 0.0000000000000000e+00  -2.8807085626222435e-02 9.8851976