<?xml version="1.0"?>
<VTKFile type="UnstructuredGrid"  version="0.1"  >
<UnstructuredGrid>
<Piece  NumberOfPoints="4252" NumberOfCells="6720">
<Points>
<DataArray  type="Float64"  NumberOfComponents="3"  format="ascii">0 0.01 0  10 0.01 0  0 1.027175258281704 0  10 1.027175258281704 0  0.007129524987038337 0.009997491741717768 0  0.01258064459049757 0.00999219056738478 0  0.01872173241756402 0.009982708334120727 0  0.02429919625640796 0.009970876572043954 0  0.03017238705920286 0.009955108531615313 0  0.03612352734296466 0.0099356743715591 0  0.04164979236492252 0.009914517792428084 0  0.04780928449023854 0.009887415768096998 0  0.05327287671237849 0.009860276931383746 0  0.0593436395885565 0.009826715421083503 0  0.06505608699933001 0.009791870631895848 0  0.07077243060783153 0.009753845329312128 0  0.07684085351634186 0.009710036052663748 0  0.08230528612367993 0.009667566921662384 0  0.08846525752759338 0.009616276826848907 0  0.09398926586603956 0.0095672187064786 0  0.09994377871281757 0.009511110804477986 0  0.10581288515308 0.009452550633355501 0  0.1113930001121819 0.009393893683773193 0  0.1175326299024069 0.009326020378011352 0  0.122983161250664 0.009262856809916281 0  0.1290978349347763 0.009188765415777931 0  0.1347300222736412 0.00911751981665075 0  0.1405327472005438 0.009041131768776852 0  0.1465421455697866 0.008958856277281909 0  0.1520341809431761 0.008880870879718691 0  0.1581991754706344 0.00879018143976357 0  0.1636834803794234 0.008706732874359017 0  0.1697073563005918 0.008612096527554045 0  0.1754901396361989 0.008518345936558386 0  0.1811391035120075 0.008424050210098115 0  0.1872444279222087 0.00831915423323064 0  0.1926961446341008 0.008222899998379215 0  0.198841090009393 0.008111516418624823 0  0.2044064770158165 0.008008028244452866 0  0.2102948627703611 0.007895869216798803 0  0.2162299794791283 0.007780085801116003 0  0.2217647046821167 0.007669675498109103 0  0.2279204403470532 0.007544154739747676 0  0.2333791472114919 0.007430485124751003 0  0.2394590817234977 0.0073013084386626 0  0.245152498789355 0.007177928079207972 0  0.2508861115607116 0.007051356111670669 0  0.2569419868439766 0.006915186417023598 0  0.2624099649457279 0.006790084113692359 0  0.2685711825796066 0.006646722567663751 0  0.274083748205357 0.006516341894728842 0  0.2800541704182985 0.00637292855786236 0  0.2859022845836161 0.006230279166502627 0  0.291495955429921 0.006091868246150131 0  0.2976275706217687 0.005937986548763313 0  0.3030757324287757 0.005799406374294222 0  0.3091980118239236 0.005641654227187252 0  0.3148109405089491 0.005495191514879527 0  0.3206341933715942 0.005341435282378838 0  0.3266248575896781 0.005181393525330103 0  0.3321252080346692 0.005032833254881577 0  0.3382880718234609 0.004864596209960478 0  0.3437628463580178 0.004713611578807419 0  0.3498021006600692 0.004545443593512952 0  0.3555594631656461 0.004383601001460968 0  0.3612291099056053 0.004222822711549606 0  0.3673210805066339 0.004048576418709386 0  0.3727746135437823 0.003891330909934085 0  0.3789246700786391 0.003712634483246944 0  0.3844721023230384 0.00355025746928806 0  0.3903845048135511 0.003376011435332509 0  0.3962935688476314 0.003200699755406988 0  0.4018430601204535 0.00303505085978487 0  0.4079921977692303 0.002850427660455144 0  0.4134449905916002 0.002685819499171436 0  0.4195385366679084 0.002500937932218923 0  0.425204482428441 0.002328206591247292 0  0.4309651825948974 0.00215183074136113 0  0.4370014133195289 0.001966263547608745 0  0.4424769325836848 0.00179732019881714 0  0.4486395183564056 0.001606544730410899 0  0.4541373275735043 0.001435838569361521 0  0.4601308451156257 0.001249254088784412 0  0.4659488863550298 0.001067707976620331 0  0.471564807260988 0.0008921302908496037 0  0.4776843759254726 0.0007004920228137959 0  0.4831317484445766 0.0005296836585198918 0  0.4892643513384632 0.0003372062279158936 0  0.4948528283485032 0.000161696161435303 0  0.5007056813361916 -2.216943068070812e-05 0  0.5066699093509902 -0.000209526046556915 0  0.5121845298566023 -0.0003826949545447442 0  0.5183439831944545 -0.0005759742926309219 0  0.5238088617282698 -0.0007472800272428554 0  0.5298681543527348 -0.0009369594486414562 0  0.5355929349139432 -0.001115856450691032 0  0.5412927239341832 -0.001293613669039852 0  0.5473668732672543 -0.001482588207084091 0  0.5528259073001393 -0.001651967505962102 0  0.5589819336317072 -0.001842386787779294 0  0.5645100189486582 -0.002012797049529044 0  0.5704524332663232 -0.002195301346534757 0  0.5763298911552834 -0.002375058665203144 0  0.5819006708717119 -0.002544689651648297 0  0.5880413281562127 -0.002730768313747055 0  0.5934904284812221 -0.002895042191696308 0  0.5995995320960693 -0.003078202338538874 0  0.605236779888003 -0.003246210954182579 0  0.6110299855290301 -0.003417806240976177 0  0.6170432999212266 -0.00359472323302265 0  0.6225307972792151 -0.00375505261922207 0  0.6286944373476531 -0.003933803567825084 0  0.6341794289295242 -0.004091634709336539 0  0.6401977648984302 -0.004263413669385436 0  0.6459846030577213 -0.004427148756161272 0  0.6516277670629291 -0.004585409549508515 0  0.6577342305863492 -0.004755038487876419 0  0.6631843111407589 -0.004904958327357115 0  0.6693271588517591 -0.005072208653571043 0  0.6748942591145469 -0.005222152905474348 0  0.6807781354428797 -0.005378892074409919 0  0.6867158102497221 -0.005535201343768038 0  0.6922478556369909 -0.005679100421160843 0  0.6984036264198542 -0.005837205328254034 0  0.7038624132928571 -0.005975584427524931 0  0.7099402809449575 -0.006127588021236129 0  0.7156361945945205 -0.006268012368771779 0  0.7213667017809595 -0.006407263887957157 0  0.7274241898103784 -0.006552202568912044 0  0.7328913375361901 -0.006680980644346233 0  0.7390522654079078 -0.006823736587757829 0  0.7445663161830813 -0.006949337256267011 0  0.7505345306161221 -0.007082931996795786 0  0.7563856967966242 -0.007211490056377221 0  0.7619775509571868 -0.007332073958440476 0  0.7681106054434813 -0.007461725199742056 0  0.7735594228940573 -0.007574589702563127 0  0.7796809699364847 -0.007698739982391196 0  0.7852974086111042 -0.007810142587226769 0  0.7911178568436495 -0.007923025648348906 0  0.797112403703894 -0.008036515862006795 0  0.8026119630288198 -0.008138129173272899 0  0.8087760180262171 -0.008249131188213875 0  0.814253500572072 -0.008345174877796967 0  0.8202905515677629 -0.008448166667805387 0  0.8260544286221699 -0.008543663134562481 0  0.831720415905675 -0.008634807324656511 0  0.8378167080097026 -0.008729817306667463 0  0.8432709709919499 -0.008812108559864256 0  0.8494209576248264 -0.008901791974276371 0  0.8549745826348545 -0.008979924427376591 0  0.8608814329347291 -0.009060026011188804 0  0.8667998142885592 -0.009137155111096256 0  0.8723460990452367 -0.009206568509458774 0  0.8784989383774584 -0.009280301817794542 0  0.8839552890388401 -0.009342788637451834 0  0.8900456692707091 -0.009409293585850673 0  0.8957233874467343 -0.009468190513990782 0  0.9014754209053449 -0.009524786393944277 0  0.9075213579987256 -0.009580921173179099 0  0.9129954731058688 -0.009628765913494807 0  0.9191593188847452 -0.009679229788646495 0  0.9246655330424429 -0.009721240864333262 0  0.9306503084472221 -0.009763603884533442 0  0.9364847200361547 -0.009801580348484516 0  0.9420914259676206 -0.009834972127394636 0  0.948219177636862 -0.009867976960504428 0  0.9536688877131657 -0.009894257783109666 0  0.9597979104438458 -0.009920349306153329 0  0.9654020314719589 -0.009940987600901847 0  0.9712398170272581 -0.009959209624459757 0  0.9772219132298864 -0.009974407121723252 0  0.9827297975109929 -0.009985285083248089 0  0.9888934840407251 -0.009993913310034224 0  0.9943667421923366 -0.009998434045983932 0  1.000414962337846 -0.009999991502249178 0  1.00616395254491 -0.009998125110441144 0  1.011844857354635 -0.009993077234903055 0  1.017933801412069 -0.009984132829796667 0  1.023390946643176 -0.00997301205183276 0  1.029544679732296 -0.009956955598792184 0  1.035089558108845 -0.009939300412459717 0  1.041010936359372 -0.009917116481575694 0  1.04691554237944 -0.00989157814857561 0  1.052471258615448 -0.009864440751261633 0  1.05862104751389 -0.009830897850136421 0  1.064075481579663 -0.009798076706746352 0  1.070173358231585 -0.009757978136698224 0  1.075837941143087 -0.00971752009646258 0  1.081604377355612 -0.009673173917302162 0  1.087640686528322 -0.009623351755525641 0  1.093119387704205 -0.009575135453199036 0  1.099284093826516 -0.009517491101966447 0  1.104783734376909 -0.009463052176492596 0  1.110779897618174 -0.009400480030121557 0  1.116599992234411 -0.00933655469875222 0  1.122217899723542 -0.009271889359757672 0  1.128339818747432 -0.009198135031144493 0  1.133789446190431 -0.00912961705214143 0  1.139923317158062 -0.009049295973540348 0  1.145515844317945 -0.008973134373133167 0  1.151367773813766 -0.008890475161473248 0  1.157336906671575 -0.008803064948780913 0  1.16285160438384 -0.008719557366803981 0  1.16901331600552 -0.008623157866544266 0  1.174481522907442 -0.00853490108265173 0  1.180539122189597 -0.008434191931863186 0  1.186271617394136 -0.008336073959344166 0  1.191966996821913 -0.008235914041393521 0  1.198046448076202 -0.008126091334838595 0  1.203505695906331 -0.008024945109277802 0  1.209661806077474 -0.007908057515838151 0  1.21519584913737 -0.007800455577732041 0  1.221132109188887 -0.00768241304184519 0  1.227019087412133 -0.007562711583992629 0  1.232585135446325 -0.007447155722966398 0  1.238729389023077 -0.007316953404904543 0  1.244180486899644 -0.007199156086382225 0  1.250286093435722 -0.007064709646262071 0  1.255932842016573 -0.006938052500145445 0  1.261716857103797 -0.006806053534187844 0  1.26773845151126 -0.006666245775332091 0  1.273222687278595 -0.006536836953056475 0  1.279386853652711 -0.00638906998029936 0  1.284876650734994 -0.006255450389977176 0  1.290887326898431 -0.00610702037198264 0  1.296685536664392 -0.00596177282270944 0  1.30231949087952 -0.005818744638503708 0  1.308431215520824
[...]
<PointData  Vectors="Velocity"> 
<DataArray  type="Float64"  Name="Velocity"  NumberOfComponents="3" format="ascii">3.6881882531223157e-11 9.7039118677811742e-01 0.0000000000000000e+00  3.6881882531223157e-11 9.7039118677811742e-01 0.0000000000000000e+00  1.0755920264301110e-05 -3.7479574268577641e-02 0.0000000000000000e+00  1.0755920264301110e-05 -3.7479574268577641e-02 0.0000000000000000e+00  6.8276941305725003e-04 9.7039837325184031e-01 0.0000000000000000e+00  1.2046099910418757e-03 9.7041356190772887e-01 0.0000000000000000e+00  1.7921088397601080e-03 9.7044073060000502e-01 0.0000000000000000e+00  2.3251659745314656e-03 9.7047463240328902e-01 0.0000000000000000e+00  2.8857804192741364e-03 9.7051981479193961e-01 0.0000000000000000e+00  3.4529207883336119e-03 9.7057550524391933e-01 0.0000000000000000e+00  3.9785890676915583e-03 9.7063613546657157e-01 0.0000000000000000e+00  4.5631958060166067e-03 9.7071380995972101e-01 0.0000000000000000e+00  5.0804550920577028e-03 9.7079159647807822e-01 0.0000000000000000e+00  5.6535892247650543e-03 9.7088780114300743e-01 0.0000000000000000e+00  6.1911841074921660e-03 9.7098769529709783e-01 0.0000000000000000e+00  6.7273230429990855e-03 9.7109671998338210e-01 0.0000000000000000e+00  7.2943107041545593e-03 9.7122234431609444e-01 0.0000000000000000e+00  7.8027986253069491e-03 9.7134414213047826e-01 0.0000000000000000e+00  8.3734814659999924e-03 9.7149125981586570e-01 0.0000000000000000e+00  8.8828125255467193e-03 9.7163199780476806e-01 0.0000000000000000e+00  9.4290913300150714e-03 9.7179298653260637e-01 0.0000000000000000e+00  9.9645789733674214e-03 9.7196104194713728e-01 0.0000000000000000e+00  1.0470824123984205e-02 9.7212940664056058e-01 0.0000000000000000e+00  1.1024416359501162e-02 9.7232426407658945e-01 0.0000000000000000e+00  1.1512728270490649e-02 9.7250563742887852e-01 0.0000000000000000e+00  1.2056846605854763e-02 9.7271843644395684e-01 0.0000000000000000e+00  1.2554419199320417e-02 9.7292310935606663e-01 0.0000000000000000e+00  1.3063278157248065e-02 9.7314260651534834e-01 0.0000000000000000e+00  1.3586052038287225e-02 9.7337907986994943e-01 0.0000000000000000e+00  1.4059923797093987e-02 9.7360327990725926e-01 0.0000000000000000e+00  1.4587261656337482e-02 9.7386407270762831e-01 0.0000000000000000e+00  1.5052141513209187e-02 9.7410410938091496e-01 0.0000000000000000e+00  1.5558003373801583e-02 9.7437640358884925e-01 0.0000000000000000e+00  1.6038778843048489e-02 9.7464623030105058e-01 0.0000000000000000e+00  1.6503699363802016e-02 9.7491770757853158e-01 0.0000000000000000e+00  1.7000785161191908e-02 9.7521979776770340e-01 0.0000000000000000e+00  1.7439758707035395e-02 9.7549708873657792e-01 0.0000000000000000e+00  1.7928855235726727e-02 9.7581807144710153e-01 0.0000000000000000e+00  1.8366488001316007e-02 9.7611640350796935e-01 0.0000000000000000e+00  1.8823828051636786e-02 9.7643984237811232e-01 0.0000000000000000e+00  1.9278748690186479e-02 9.7677385355352864e-01 0.0000000000000000e+00  1.9697358415489169e-02 9.7709248014792160e-01 0.0000000000000000e+00  2.0156414080005725e-02 9.7745484946887029e-01 0.0000000000000000e+00  2.0557612447463243e-02 9.7778313034134856e-01 0.0000000000000000e+00  2.0997814978492711e-02 9.7815634067097768e-01 0.0000000000000000e+00  2.1403551721033337e-02 9.7851294890347973e-01 0.0000000000000000e+00  2.1805665565511903e-02 9.7887892865585391e-01 0.0000000000000000e+00  2.2223189508632484e-02 9.7927282476538657e-01 0.0000000000000000e+00  2.2593696663747061e-02 9.7963485749572321e-01 0.0000000000000000e+00  2.3003669785277105e-02 9.8004991000091402e-01 0.0000000000000000e+00  2.3363614441722858e-02 9.8042754717303127e-01 0.0000000000000000e+00  2.3746009450186626e-02 9.8084311406480984e-01 0.0000000000000000e+00  2.4112932230592948e-02 9.8125665726563294e-01 0.0000000000000000e+00  2.4456702780862281e-02 9.8165809541988025e-01 0.0000000000000000e+00  2.4825329315980967e-02 9.8210461364479229e-01 0.0000000000000000e+00  2.5145552550804452e-02 9.8250692010252716e-01 0.0000000000000000e+00  2.5497059444555298e-02 9.8296510339339116e-01 0.0000000000000000e+00  2.5811460259074662e-02 9.8339070655396021e-01 0.0000000000000000e+00  2.6129570695747222e-02 9.8383772040495787e-01 0.0000000000000000e+00  2.6448149858852649e-02 9.8430324292573257e-01 0.0000000000000000e+00  2.6732786798042796e-02 9.8473558477533130e-01 0.0000000000000000e+00  2.7042654363123440e-02 9.8522544192653949e-01 0.0000000000000000e+00  2.7309799238313011e-02 9.8566529262399816e-01 0.0000000000000000e+00  2.7595511171340039e-02 9.8615545476345778e-01 0.0000000000000000e+00  2.7859020529404210e-02 9.8662743342750370e-01 0.0000000000000000e+00  2.8109961102637117e-02 9.8709655499321380e-01 0.0000000000000000e+00  2.8370033401611386e-02 9.8760525023662515e-01 0.0000000000000000e+00  2.8594361867361352e-02 9.8806456000096210e-01 0.0000000000000000e+00  2.8837624386691876e-02 9.8858681421592220e-01 0.0000000000000000e+00  2.9048130916887589e-02 9.8906163845501771e-01 0.0000000000000000e+00  2.9263085685241996e-02 9.8957144954138987e-01 0.0000000000000000e+00  2.9468143632231516e-02 9.9008467062267758e-01 0.0000000000000000e+00  2.9651744029995725e-02 9.9056987601122171e-01 0.0000000000000000e+00  2.9844956592398678e-02 9.9111096905404261e-01 0.0000000000000000e+00  3.0007215087036000e-02 9.9159367811436216e-01 0.0000000000000000e+00  3.0178377562578237e-02 9.9213614871069167e-01 0.0000000000000000e+00  3.0327838635481809e-02 9.9264326729096697e-01 0.0000000000000000e+00  3.0470158012422002e-02 9.9316138332598114e-01 0.0000000000000000e+00  3.0608793231938703e-02 9.9370682338698224e-01 0.0000000000000000e+00  3.0725205598973952e-02 9.9420368994584196e-01 0.0000000000000000e+00  3.0845532031811090e-02 9.9476509946848302e-01 0.0000000000000000e+00  3.0943271446550718e-02 9.9526774978934096e-01 0.0000000000000000e+00  3.1039449437966396e-02 9.9581747753954342e-01 0.0000000000000000e+00  3.1122413447033901e-02 9.9635268618487849e-01 0.0000000000000000e+00  3.1192736516917390e-02 9.9687060695260421e-01 0.0000000000000000e+00  3.1258409594728295e-02 9.9743624711233514e-01 0.0000000000000000e+00  3.1307220750805415e-02 9.9794070771973664e-01 0.0000000000000000e+00  3.1351261485016046e-02 9.9850950868437183e-01 0.0000000000000000e+00  3.1381302191858154e-02 9.9902848660395049e-01 0.0000000000000000e+00  3.1402418584569651e-02 9.9957249642491453e-01 0.0000000000000000e+00  3.1413024215899907e-02 1.0001271770657059e+00 0.0000000000000000e+00  3.1413008987656817e-02 1.0006401624416079e+00 0.0000000000000000e+00  3.1401819208800676e-02 1.0012130727979132e+00 0.0000000000000000e+00  3.1382005682766147e-02 1.0017211594510840e+00 0.0000000000000000e+00  3.1349163347464078e-02 1.0022840801582387e+00 0.0000000000000000e+00  3.1307621961819840e-02 1.0028153293810005e+00 0.0000000000000000e+00  3.1256111036498023e-02 1.0033435104338089e+00 0.0000000000000000e+00  3.1190071070761990e-02 1.0039053670861287e+00 0.0000000000000000e+00  3.1120909386506173e-02 1.0044092652193133e+00 0.0000000000000000e+00  3.1031786991097935e-02 1.0049761004608975e+00 0.0000000000000000e+00  3.0941711224512683e-02 1.0054836821538418e+00 0.0000000000000000e+00  3.0834301064235788e-02 1.0060276092929055e+00 0.0000000000000000e+00  3.0717298438257858e-02 1.0065636756789980e+00 0.0000000000000000e+00  3.0596538461930257e-02 1.0070698429330205e+00 0.0000000000000000e+00  3.0452333560789586e-02 1.0076254227274721e+00 0.0000000000000000e+00  3.0314653669493378e-02 1.0081161896902868e+00 0.0000000000000000e+00  3.0149475356996545e-02 1.0086637002988603e+00 0.0000000000000000e+00  2.9986942158822187e-02 1.0091662188797874e+00 0.0000000000000000e+00  2.9809838066841728e-02 1.0096797613206361e+00 0.0000000000000000e+00  2.9615255249204810e-02 1.0102095427851050e+00 0.0000000000000000e+00  2.9428175556604163e-02 1.0106899265258515e+00 0.0000000000000000e+00  2.9207280355090823e-02 1.0112258155523799e+00 0.0000000000000000e+00  2.9001180599863955e-02 1.0116992594111529e+00 0.0000000000000000e+00  2.8764783502331265e-02 1.0122148305898351e+00 0.0000000000000000e+00  2.8527419966951576e-02 1.0127065398922797e+00 0.0000000000000000e+00  2.8286522200800267e-02 1.0131820717828943e+00 0.0000000000000000e+00  2.8015427581745213e-02 1.0136920474464450e+00 0.0000000000000000e+00  2.7764406883721306e-02 1.0141430144379502e+00 0.0000000000000000e+00  2.7471303921024218e-02 1.0146463860364603e+00 0.0000000000000000e+00  2.7196445719356248e-02 1.0150979175071511e+00 0.0000000000000000e+00  2.6896489597559196e-02 1.0155701587744326e+00 0.0000000000000000e+00  2.6584022191632296e-02 1.0160413574847764e+00 0.0000000000000000e+00  2.6284183448185634e-02 1.0164753683877470e+00 0.0000000000000000e+00  2.5940738495785313e-02 1.0169524737665336e+00 0.0000000000000000e+00  2.5627649043328756e-02 1.0173702664807682e+00 0.0000000000000000e+00  2.5269718687426397e-02 1.0178294226538400e+00 0.0000000000000000e+00  2.4925467971259739e-02 1.0182538152874341e+00 0.0000000000000000e+00  2.4570628804997944e-02 1.0186748671452543e+00 0.0000000000000000e+00  2.4186399489050599e-02 1.0191133296622334e+00 0.0000000000000000e+00  2.3831655515470219e-02 1.0195030869645318e+00 0.0000000000000000e+00  2.3422976758563297e-02 1.0199353530901198e+00 0.0000000000000000e+00  2.3049318660107999e-02 1.0203158499173410e+00 0.0000000000000000e+00  2.2636609336283781e-02 1.0207207452775631e+00 0.0000000000000000e+00  2.2223784718950777e-02 1.0211105517163379e+00 0.0000000000000000e+00  2.1821792540549036e-02 1.0214763378434490e+00 0.0000000000000000e+00  2.1372651809127376e-02 1.0218698002700446e+00 0.0000000000000000e+00  2.0966519159850493e-02 1.0222124626612292e+00 0.0000000000000000e+00  2.0502431501211959e-02 1.0225895438388510e+00 0.0000000000000000e+00  2.0069504994625800e-02 1.0229280456307810e+00 0.0000000000000000e+00  1.9613809283996499e-02 1.0232711798721117e+00 0.0000000000000000e+00  1.9137143939273092e-02 1.0236162952236345e+00 0.0000000000000000e+00  1.8693443380548107e-02 1.0239254088063114e+00 0.0000000000000000e+00  1.8189025094565579e-02 1.0242632092456601e+00 0.0000000000000000e+00  1.7734644810923010e-02 1.0245555944213893e+00 0.0000000000000000e+00  1.7227314496782390e-02 1.0248692399243025e+00 0.0000000000000000e+00  1.6736719353751713e-02 1.0251601599472109e+00 0.0000000000000000e+00  1.6248710196148482e-02 1.0254379122609647e+00 0.0000000000000000e+00  1.5717441063204048e-02 1.0257275394338783e+00 0.0000000000000000e+00  1.5236857346593727e-02 1.0259784721936454e+00 0.0000000000000000e+00  1.4689190294739944e-02 1.0262520283835681e+00 0.0000000000000000e+00  1.4189538366038829e-02 1.0264904217263802e+00 0.0000000000000000e+00  1.3652997365346798e-02 1.0267348907580391e+00 0.0000000000000000e+00  1.3110310646206925e-02 1.0269703522562130e+00 0.0000000000000000e+00  1.2597295398752635e-02 1.0271823133771936e+00 0.0000000000000000e+00  1.2023334810800203e-02 1.0274075226525172e+00 0.0000000000000000e+00  1.1510274109441332e-02 1.0275984266399312e+00 0.0000000000000000e+00  1.0933269816398236e-02 1.0278016518972402e+00 0.0000000000000000e+00  1.0391451465942697e-02 1.0279816681706273e+00 0.0000000000000000e+00  9.8388895469789326e-03 1.0281546868813325e+00 0.0000000000000000e+00  9.2543373899572103e-03 1.0283263297583691e+00 0.0000000000000000e+00  8.7219442824970107e-03 1.0284726506279351e+00 0.0000000000000000e+00  8.1191200543369573e-03 1.0286270083072095e+00 0.0000000000000000e+00  7.5778111474975665e-03 1.0287555318884207e+00 0.0000000000000000e+00  6.9866671819299609e-03 1.0288851512243347e+00 0.0000000000000000e+00  6.4077882239275703e-03 1.0290013650591172e+00 0.0000000000000000e+00  5.8492947653745690e-03 1.0291035620379099e+00 0.0000000000000000e+00  5.2366468701097154e-03 1.0292045866105486e+00 0.0000000000000000e+00  4.6900082963157678e-03 1.0292850380218328e+00 0.0000000000000000e+00  4.0734511569873065e-03 1.0293649171474661e+00 0.0000000000000000e+00  3.5082530086469063e-03 1.0294281065112314e+00 0.0000000000000000e+00  2.9182305210566201e-03 1.0294839017712512e+00 0.0000000000000000e+00  2.3125193820891037e-03 1.0295304386213049e+00 0.0000000000000000e+00  1.7540287932232771e-03 1.0295637500345585e+00 0.0000000000000000e+00  1.1283746275356633e-03 1.0295901730016215e+00 0.0000000000000000e+00  5.7240827946032982e-04 1.0296040175452903e+00 0.0000000000000000e+00  -4.2168882831109859e-05 1.0296087872271769e+00 0.0000000000000000e+00  -6.2632993541294937e-04 1.0296030714497226e+00 0.0000000000000000e+00  -1.2033549319873682e-03 1.0295876126241035e+00 0.0000000000000000e+00  -1.8213553978583743e-03 1.0295602214326143e+00 0.0000000000000000e+00  -2.3746239328463485e-03 1.0295261666538309e+00 0.0000000000000000e+00  -2.9975909349140169e-03 1.0294769998374005e+00 0.0000000000000000e+00  -3.5578851330515938e-03 1.0294229406698701e+00 0.0000000000000000e+00  -4.1549249059974419e-03 1.0293550195376178e+00 0.0000000000000000e+00  -4.7487095104014228e-03 1.0292768346875514e+00 0.0000000000000000e+00  -5.3057989531809843e-03 1.0291937623839675e+00 0.0000000000000000e+00  -5.9203815661812396e-03 1.0290910920473451e+00 0.0000000000000000e+00  -6.4634767039826067e-03 1.0289906426810564e+00 0.0000000000000000e+00  -7.0681903731283418e-03 1.0288679367060636e+00 0.0000000000000000e+00  -7.6274127470827759e-03 1.0287441483493827e+00 0.0000000000000000e+00  -8.1939966577145931e-03 1.0286084834851974e+00 0.0000000000000000e+00  -8.7839598351995927e-03 1.0284560915097163e+00 0.0000000000000000e+00  -9.3164665436783582e-03 1.0283086371923891e+00 0.0000000000000000e+00  -9.9120557478401643e-03 1.0281323827303341e+00 0.0000000000000000e+00  -1.0439996035309981e-02 1.0279659616719756e+00 0.0000000000000000e+00  -1.1011752040344984e-02 1.0277747166767126e+00 0.0000000000000000e+00  -1.1562652660686882e-02 1.0275793792258583e+00 0.0000000000000000e+00  -1.2090465044874070e-02 1.0273818252381461e+00 0.0000000000000000e+00  -1.2660965302853896e-02 1.0271565582691076e+00 0.0000000000000000e+00  -1.3164567275110173e-02 1.0269473368370612e+00 0.0000000000000000e+00  -1.3726398409812268e-02 1.0267021387174629e+00 0.0000000000000000e+00  -1.4233856262567257e-02 1.0264697018994466e+00 0.0000000000000000e+00  -1.4759765486614332e-02 1.0262175047286799e+00 0.0000000000000000e+00  -1.5290656438818820e-02 1.0259508915521480e+00 0.0000000000000000e+00  -1.5775989439171058e-02 1.0256962586175846e+00 0.0000000000000000e+00  -1.6312216281388247e-02 1.0254024072396446e+00 0.0000000000000000e+00  -1.6782588223030307e-02 1.0251334632803546e+00 0.0000000000000000e+00  -1.7297433322904919e-02 1.0248266749946504e+00 0.0000000000000000e+00  -1.7778448653111491e-02 1.0245278844302503e+00 0.0000000000000000e+00  -1.8250219990169844e-02 1.0242229804273060e+00 0.0000000000000000e+00  -1.8746878781035949e-02 1.0238887834232981e+00 0.0000000000000000e+00  -1.9186632575452486e-02 1.0235811027148574e+00 0.0000000000000000e+00  -1.9675260372891759e-02 1.0232256730670894e+00 0.0000000000000000e+00  -2.0107795707871939e-02 1.0228986062951535e+00 0.0000000000000000e+00  -2.0564539843119550e-02 1.0225399447939603e+00 0.0000000000000000e+00  -2.1009951137580234e-02 1.0221763933246331e+00 0.0000000000000000e+00  -2.1424031284004892e-02 1.0218255766361721e+00 0.0000000000000000e+00  -2.1873011919571379e-02 1.0214304623239627e+00 0.0000000000000000e+00  -2.2264084407555097e-02 1.0210731456187352e+00 0.0000000000000000e+00  -2.2693861893030558e-02 1.0206655058304028e+00 0.0000000000000000e+00  -2.3083445436881879e-02 1.0202816572342979e+00 0.0000000000000000e+00  -2.3474510386530815e-02 1.0198817974925534e+00 0.0000000000000000e+00  -2.3872899670477957e-02 1.0194584819425354e+00 0.0000000000000000e+00  -2.4227876184566444e-02 1.0190668356049604e+00 0.0000000000000000e+00  -2.4617774370483538e-02 1.0186198434221003e+00 0.0000000000000000e+00  -2.4956812601320117e-02 1.0182158421568197e+00 0.0000000000000000e+00  -2.5319031892083337e-02 1.0177672796393755e+00 0.0000000000000000e+00  -2.5659438677287184e-02 1.0173285572981059e+00 0.0000000000000000e+00  -2.5981626235076830e-02 1.0168967526540971e+00 0.0000000000000000e+00  -2.6321439093509716e-02 1.0164223570673161e+00 0.0000000000000000e+00  -2.6615846748615602e-02 1.0159942808342244e+00 0.0000000000000000e+00  -2.6937746811569956e-02 1.0155063888961267e+00 0.0000000000000000e+00  -2.7220950417052074e-02 1.0150584042508128e+00 0.0000000000000000e+00  -2.7509847039085874e-02 1.0145815288324762e+00 0.0000000000000000e+00  -2.7792459877376136e-02 1.0140935606667674e+00 0.0000000000000000e+00  -2.8045950783519479e-02 1.0136358711868434e+00 0.0000000000000000e+00  -2.8318052979497504e-02 1.0131210814330842e+00 0.0000000000000000e+00  -2.8550156536995233e-02 1.0126604809018773e+00 0.0000000000000000e+00  -2.8797957179616609e-02 1.0121441119402230e+00 0.0000000000000000e+00  -2.9020961174218398e-02 1.0116548376576875e+00 0.0000000000000000e+00  -2.9234778119486188e-02 1.0111607929290867e+00 0.0000000000000000e+00  -2.9450814046929612e-02 1.0106331682980034e+00 0.0000000000000000e+00  -2.9636033042459480e-02 1.0101545226764046e+00 0.0000000000000000e+00  -2.9834027479124933e-02 1.0096115008908140e+00 0.0000000000000000e+00  -3.0001662974393457e-02 1.0091220135726240e+00 0.0000000000000000e+00  -3.0172274745090336e-02 1.0085904946902289e+00 0.0000000000000000e+00  -3.0329462071503874e-02 1.0080650242010962e+00 0.0000000000000000e+00  -3.0469454148561684e-02 1.0075618599072262e+00 0.0000000000000000e+00  -3.0612202696986057e-02 1.0070064967648356e+00 0.0000000000000000e+00  -3.0729225807100715e-02 1.0065112812365815e+00 0.0000000000000000e+00  -3.0849679039052821e-02 1.0059531298247748e+00 0.0000000000000000e+00  -3.0950149076314434e-02 1.0054383733446461e+00 0.0000000000000000e+00  -3.1043690208315773e-02 1.0049046135505209e+00 0.0000000000000000e+00  -3.1129234542910576e-02 1.0043520662286640e+00 0.0000000000000000e+00  -3.1197756370932729e-02 1.0038447394445573e+00 0.0000000000000000e+00  -3.1263416626051921e-02 1.0032745429124064e+00 0.0000000000000000e+00  -3.1311838995176443e-02 1.0027668476031772e+00 0.0000000000000000e+00  -3.1354334330517639e-02 1.0022070642626317e+00 0.0000000000000000e+00  -3.1384366896887145e-02 1.0016712036091326e+00 0.0000000000000000e+00  -3.1403765199401398e-02 1.0011449836457993e+00 0.0000000000000000e+00  -3.1413514198452737e-02 1.0005778905524763e+00 0.0000000000000000e+00  -3.1412448973160978e-02 1.0000707724236957e+00 0.0000000000000000e+00  -3.1400188400562974e-02 9.9949909325055386e-01 0.0000000000000000e+00  -3.1379052764824299e-02 9.9898296683822518e-01 0.0000000000000000e+00  -3.1346145835041223e-02 9.9843489465896162e-01 0.0000000000000000e+00  -3.1302377054896198e-02 9.9788607429843479e-01 0.0000000000000000e+00  -3.1251623991007012e-02 9.9737284157913797e-01 0.0000000000000000e+00  -3.1184296444431693e-02 9.9680443445338307e-01 0.0000000000000000e+00  -3.1114943276232439e-02 9.9630157419200283e-01 0.0000000000000000e+00  -3.1026849662676111e-02 9.9574167407405201e-01 0.0000000000000000e+00  -3.0934647345496353e-02 9.9522137366195829e-01 0.0000000000000000e+00  -3.0831311528010042e-02 9.9469576481596800e-01 0.0000000000000000e+00  -3.0712063526365064e-02 9.9414553399242434e-01 0.0000000000000000e+00  -3.0594678295862425e-02 9.9364916812205539e-01 0.0000000000000000e+00  -3.0451883032660151e-02 9.9309265849905082e-01 0.0000000000000000e+00  -3.0314924624787260e-02 9.9259805034407311e-01 0.0000000000000000e+00  -3.0155860833042124e-02 9.9206260156607828e-01 0.0000000000000000e+00  -2.9990999182578772e-02 9.9154413902348715e-01 0.0000000000000000e+00  -2.9823081875728873e-02 9.9104796838805476e-01 0.0000000000000000e+00  -2.9629449036943846e-02 9.9050952599208697e-01 0.0000000000000000e+00  -2.9448236747441479e-02 9.9003358666095942e-01 0.0000000000000000e+00  -2.9234328433405950e-02 9.8950166221153013e-01 0.0000000000000000e+00  -2.9029855043232657e-02 9.8901950322642485e-01 0.0000000000000000e+00  -2.8807085633533767e-02 9.885197662