<?xml version="1.0"?>
<VTKFile type="UnstructuredGrid"  version="0.1"  >
<UnstructuredGrid>
<Piece  NumberOfPoints="4272" NumberOfCells="6760">
<Points>
<DataArray  type="Float64"  NumberOfComponents="3"  format="ascii">0 0.01 0  10 0.01 0  0 1.02244766404895 0  10 1.02244766404895 0  0.007129524987038337 0.009997491741717768 0  0.01258064459049757 0.00999219056738478 0  0.01872173241756402 0.009982708334120727 0  0.02429919625640796 0.009970876572043954 0  0.03017238705920286 0.009955108531615313 0  0.03612352734296466 0.0099356743715591 0  0.04164979236492252 0.009914517792428084 0  0.04780928449023854 0.009887415768096998 0  0.05327287671237849 0.009860276931383746 0  0.0593436395885565 0.009826715421083503 0  0.06505608699933001 0.009791870631895848 0  0.07077243060783153 0.009753845329312128 0  0.07684085351634186 0.009710036052663748 0  0.08230528612367993 0.009667566921662384 0  0.08846525752759338 0.009616276826848907 0  0.09398926586603956 0.0095672187064786 0  0.09994377871281757 0.009511110804477986 0  0.10581288515308 0.009452550633355501 0  0.1113930001121819 0.009393893683773193 0  0.1175326299024069 0.009326020378011352 0  0.122983161250664 0.009262856809916281 0  0.1290978349347763 0.009188765415777931 0  0.1347300222736412 0.00911751981665075 0  0.1405327472005438 0.009041131768776852 0  0.1465421455697866 0.008958856277281909 0  0.1520341809431761 0.008880870879718691 0  0.1581991754706344 0.00879018143976357 0  0.1636834803794234 0.008706732874359017 0  0.1697073563005918 0.008612096527554045 0  0.1754901396361989 0.008518345936558386 0  0.1811391035120075 0.008424050210098115 0  0.1872444279222087 0.00831915423323064 0  0.1926961446341008 0.008222899998379215 0  0.198841090009393 0.008111516418624823 0  0.2044064770158165 0.008008028244452866 0  0.2102948627703611 0.007895869216798803 0  0.2162299794791283 0.007780085801116003 0  0.2217647046821167 0.007669675498109103 0  0.2279204403470532 0.007544154739747676 0  0.2333791472114919 0.007430485124751003 0  0.2394590817234977 0.0073013084386626 0  0.245152498789355 0.007177928079207972 0  0.2508861115607116 0.007051356111670669 0  0.2569419868439766 0.006915186417023598 0  0.2624099649457279 0.006790084113692359 0  0.2685711825796066 0.006646722567663751 0  0.274083748205357 0.006516341894728842 0  0.2800541704182985 0.00637292855786236 0  0.2859022845836161 0.006230279166502627 0  0.291495955429921 0.006091868246150131 0  0.2976275706217687 0.005937986548763313 0  0.3030757324287757 0.005799406374294222 0  0.3091980118239236 0.005641654227187252 0  0.3148109405089491 0.005495191514879527 0  0.3206341933715942 0.005341435282378838 0  0.3266248575896781 0.005181393525330103 0  0.3321252080346692 0.005032833254881577 0  0.3382880718234609 0.004864596209960478 0  0.3437628463580178 0.004713611578807419 0  0.3498021006600692 0.004545443593512952 0  0.3555594631656461 0.004383601001460968 0  0.3612291099056053 0.004222822711549606 0  0.3673210805066339 0.004048576418709386 0  0.3727746135437823 0.003891330909934085 0  0.3789246700786391 0.003712634483246944 0  0.3844721023230384 0.00355025746928806 0  0.3903845048135511 0.003376011435332509 0  0.3962935688476314 0.003200699755406988 0  0.4018430601204535 0.00303505085978487 0  0.4079921977692303 0.002850427660455144 0  0.4134449905916002 0.002685819499171436 0  0.4195385366679084 0.002500937932218923 0  0.425204482428441 0.002328206591247292 0  0.4309651825948974 0.00215183074136113 0  0.4370014133195289 0.001966263547608745 0  0.4424769325836848 0.00179732019881714 0  0.4486395183564056 0.001606544730410899 0  0.4541373275735043 0.001435838569361521 0  0.4601308451156257 0.001249254088784412 0  0.4659488863550298 0.001067707976620331 0  0.471564807260988 0.0008921302908496037 0  0.4776843759254726 0.0007004920228137959 0  0.4831317484445766 0.0005296836585198918 0  0.4892643513384632 0.0003372062279158936 0  0.4948528283485032 0.000161696161435303 0  0.5007056813361916 -2.216943068070812e-05 0  0.5066699093509902 -0.000209526046556915 0  0.5121845298566023 -0.0003826949545447442 0  0.5183439831944545 -0.0005759742926309219 0  0.5238088617282698 -0.0007472800272428554 0  0.5298681543527348 -0.0009369594486414562 0  0.5355929349139432 -0.001115856450691032 0  0.5412927239341832 -0.001293613669039852 0  0.5473668732672543 -0.001482588207084091 0  0.5528259073001393 -0.001651967505962102 0  0.5589819336317072 -0.001842386787779294 0  0.5645100189486582 -0.002012797049529044 0  0.5704524332663232 -0.002195301346534757 0  0.5763298911552834 -0.002375058665203144 0  0.5819006708717119 -0.002544689651648297 0  0.5880413281562127 -0.002730768313747055 0  0.5934904284812221 -0.002895042191696308 0  0.5995995320960693 -0.003078202338538874 0  0.605236779888003 -0.003246210954182579 0  0.6110299855290301 -0.003417806240976177 0  0.6170432999212266 -0.00359472323302265 0  0.6225307972792151 -0.00375505261922207 0  0.6286944373476531 -0.003933803567825084 0  0.6341794289295242 -0.004091634709336539 0  0.6401977648984302 -0.004263413669385436 0  0.6459846030577213 -0.004427148756161272 0  0.6516277670629291 -0.004585409549508515 0  0.6577342305863492 -0.004755038487876419 0  0.6631843111407589 -0.004904958327357115 0  0.6693271588517591 -0.005072208653571043 0  0.6748942591145469 -0.005222152905474348 0  0.6807781354428797 -0.005378892074409919 0  0.6867158102497221 -0.005535201343768038 0  0.6922478556369909 -0.005679100421160843 0  0.6984036264198542 -0.005837205328254034 0  0.7038624132928571 -0.005975584427524931 0  0.7099402809449575 -0.006127588021236129 0  0.7156361945945205 -0.006268012368771779 0  0.7213667017809595 -0.006407263887957157 0  0.7274241898103784 -0.006552202568912044 0  0.7328913375361901 -0.006680980644346233 0  0.7390522654079078 -0.006823736587757829 0  0.7445663161830813 -0.006949337256267011 0  0.7505345306161221 -0.007082931996795786 0  0.7563856967966242 -0.007211490056377221 0  0.7619775509571868 -0.007332073958440476 0  0.7681106054434813 -0.007461725199742056 0  0.7735594228940573 -0.007574589702563127 0  0.7796809699364847 -0.007698739982391196 0  0.7852974086111042 -0.007810142587226769 0  0.7911178568436495 -0.007923025648348906 0  0.797112403703894 -0.008036515862006795 0  0.8026119630288198 -0.008138129173272899 0  0.8087760180262171 -0.008249131188213875 0  0.814253500572072 -0.008345174877796967 0  0.8202905515677629 -0.008448166667805387 0  0.8260544286221699 -0.008543663134562481 0  0.831720415905675 -0.008634807324656511 0  0.8378167080097026 -0.008729817306667463 0  0.8432709709919499 -0.008812108559864256 0  0.8494209576248264 -0.008901791974276371 0  0.8549745826348545 -0.008979924427376591 0  0.8608814329347291 -0.009060026011188804 0  0.8667998142885592 -0.009137155111096256 0  0.8723460990452367 -0.009206568509458774 0  0.8784989383774584 -0.009280301817794542 0  0.8839552890388401 -0.009342788637451834 0  0.8900456692707091 -0.009409293585850673 0  0.8957233874467343 -0.009468190513990782 0  0.9014754209053449 -0.009524786393944277 0  0.9075213579987256 -0.009580921173179099 0  0.9129954731058688 -0.009628765913494807 0  0.9191593188847452 -0.009679229788646495 0  0.9246655330424429 -0.009721240864333262 0  0.9306503084472221 -0.009763603884533442 0  0.9364847200361547 -0.009801580348484516 0  0.9420914259676206 -0.009834972127394636 0  0.948219177636862 -0.009867976960504428 0  0.9536688877131657 -0.009894257783109666 0  0.9597979104438458 -0.009920349306153329 0  0.9654020314719589 -0.009940987600901847 0  0.9712398170272581 -0.009959209624459757 0  0.9772219132298864 -0.009974407121723252 0  0.9827297975109929 -0.009985285083248089 0  0.9888934840407251 -0.009993913310034224 0  0.9943667421923366 -0.009998434045983932 0  1.000414962337846 -0.009999991502249178 0  1.00616395254491 -0.009998125110441144 0  1.011844857354635 -0.009993077234903055 0  1.017933801412069 -0.009984132829796667 0  1.023390946643176 -0.00997301205183276 0  1.029544679732296 -0.009956955598792184 0  1.035089558108845 -0.009939300412459717 0  1.041010936359372 -0.009917116481575694 0  1.04691554237944 -0.00989157814857561 0  1.052471258615448 -0.009864440751261633 0  1.05862104751389 -0.009830897850136421 0  1.064075481579663 -0.009798076706746352 0  1.070173358231585 -0.009757978136698224 0  1.075837941143087 -0.00971752009646258 0  1.081604377355612 -0.009673173917302162 0  1.087640686528322 -0.009623351755525641 0  1.093119387704205 -0.009575135453199036 0  1.099284093826516 -0.009517491101966447 0  1.104783734376909 -0.009463052176492596 0  1.110779897618174 -0.009400480030121557 0  1.116599992234411 -0.00933655469875222 0  1.122217899723542 -0.009271889359757672 0  1.128339818747432 -0.009198135031144493 0  1.133789446190431 -0.00912961705214143 0  1.139923317158062 -0.009049295973540348 0  1.145515844317945 -0.008973134373133167 0  1.151367773813766 -0.008890475161473248 0  1.157336906671575 -0.008803064948780913 0  1.16285160438384 -0.008719557366803981 0  1.16901331600552 -0.008623157866544266 0  1.174481522907442 -0.00853490108265173 0  1.180539122189597 -0.008434191931863186 0  1.186271617394136 -0.008336073959344166 0  1.191966996821913 -0.008235914041393521 0  1.198046448076202 -0.008126091334838595 0  1.203505695906331 -0.008024945109277802 0  1.209661806077474 -0.007908057515838151 0  1.21519584913737 -0.007800455577732041 0  1.221132109188887 -0.00768241304184519 0  1.227019087412133 -0.007562711583992629 0  1.232585135446325 -0.007447155722966398 0  1.238729389023077 -0.007316953404904543 0  1.244180486899644 -0.007199156086382225 0  1.250286093435722 -0.007064709646262071 0  1.255932842016573 -0.006938052500145445 0  1.261716857103797 -0.006806053534187844 0  1.26773845151126 -0.006666245775332091 0  1.273222687278595 -0.006536836953056475 0  1.279386853652711 -0.00638906998029936 0  1.284876650734994 -0.006255450389977176 0  1.290887326898431 -0.00610702037198264 0  1.296685536664392 -0.00596177282270944 0  1.30231949087952 -0.005818744638503708 0  1.308431215520824 -
[...]
<PointData  Vectors="Velocity"> 
<DataArray  type="Float64"  Name="Velocity"  NumberOfComponents="3" format="ascii">-1.2500040695380188e-09 9.7039118676520197e-01 0.0000000000000000e+00  -1.2500040695380188e-09 9.7039118676520197e-01 0.0000000000000000e+00  2.5534344476963596e-05 -3.3604963987312442e-02 0.0000000000000000e+00  2.5534344476963596e-05 -3.3604963987312442e-02 0.0000000000000000e+00  6.8276916529456998e-04 9.7039837325194378e-01 0.0000000000000000e+00  1.2046099702108985e-03 9.7041356190776329e-01 0.0000000000000000e+00  1.7921088249364379e-03 9.7044073059942870e-01 0.0000000000000000e+00  2.3251659820616942e-03 9.7047463240287801e-01 0.0000000000000000e+00  2.8857803940413587e-03 9.7051981479105498e-01 0.0000000000000000e+00  3.4529208041458887e-03 9.7057550524334890e-01 0.0000000000000000e+00  3.9785891532998913e-03 9.7063613546536021e-01 0.0000000000000000e+00  4.5631958942805653e-03 9.7071380995897605e-01 0.0000000000000000e+00  5.0804551675983425e-03 9.7079159647774926e-01 0.0000000000000000e+00  5.6535893028667340e-03 9.7088780114336592e-01 0.0000000000000000e+00  6.1911841539752793e-03 9.7098769529792062e-01 0.0000000000000000e+00  6.7273231648621494e-03 9.7109671998573166e-01 0.0000000000000000e+00  7.2943107416592904e-03 9.7122234431627319e-01 0.0000000000000000e+00  7.8027987062182867e-03 9.7134414213368703e-01 0.0000000000000000e+00  8.3734814895345244e-03 9.7149125981724260e-01 0.0000000000000000e+00  8.8828126025030131e-03 9.7163199780446019e-01 0.0000000000000000e+00  9.4290913508745071e-03 9.7179298653288104e-01 0.0000000000000000e+00  9.9645790503728876e-03 9.7196104194854527e-01 0.0000000000000000e+00  1.0470824131893340e-02 9.7212940664641456e-01 0.0000000000000000e+00  1.1024416306509259e-02 9.7232426408744110e-01 0.0000000000000000e+00  1.1512728133020830e-02 9.7250563745761409e-01 0.0000000000000000e+00  1.2056846388122827e-02 9.7271843645602907e-01 0.0000000000000000e+00  1.2554419415140043e-02 9.7292310938107740e-01 0.0000000000000000e+00  1.3063279056351860e-02 9.7314260652309592e-01 0.0000000000000000e+00  1.3586052165047385e-02 9.7337907987351435e-01 0.0000000000000000e+00  1.4059924299092422e-02 9.7360327990574635e-01 0.0000000000000000e+00  1.4587262778191253e-02 9.7386407269119502e-01 0.0000000000000000e+00  1.5052141972201798e-02 9.7410410933403346e-01 0.0000000000000000e+00  1.5558003478263116e-02 9.7437640357488275e-01 0.0000000000000000e+00  1.6038781226076999e-02 9.7464623024313213e-01 0.0000000000000000e+00  1.6503708513106972e-02 9.7491770736237748e-01 0.0000000000000000e+00  1.7000785908105599e-02 9.7521979774485978e-01 0.0000000000000000e+00  1.7439760006950373e-02 9.7549708870374197e-01 0.0000000000000000e+00  1.7928860904037936e-02 9.7581807129928821e-01 0.0000000000000000e+00  1.8366488754622608e-02 9.7611640348356343e-01 0.0000000000000000e+00  1.8823833281912370e-02 9.7643984222157620e-01 0.0000000000000000e+00  1.9278750649121882e-02 9.7677385352743162e-01 0.0000000000000000e+00  1.9697358708811740e-02 9.7709248014153771e-01 0.0000000000000000e+00  2.0156413872628814e-02 9.7745484948281802e-01 0.0000000000000000e+00  2.0557613525452566e-02 9.7778313031953257e-01 0.0000000000000000e+00  2.0997818875634289e-02 9.7815634057970491e-01 0.0000000000000000e+00  2.1403552377804926e-02 9.7851294888969942e-01 0.0000000000000000e+00  2.1805671540031615e-02 9.7887892849041946e-01 0.0000000000000000e+00  2.2223191497370284e-02 9.7927282470839971e-01 0.0000000000000000e+00  2.2593699013238940e-02 9.7963485742497991e-01 0.0000000000000000e+00  2.3003671752420209e-02 9.8004990994060126e-01 0.0000000000000000e+00  2.3363616536724599e-02 9.8042754710158619e-01 0.0000000000000000e+00  2.3746009816629592e-02 9.8084311404878999e-01 0.0000000000000000e+00  2.4112934226969425e-02 9.8125665719783439e-01 0.0000000000000000e+00  2.4456704498586265e-02 9.8165809536734550e-01 0.0000000000000000e+00  2.4825329521668379e-02 9.8210461364530732e-01 0.0000000000000000e+00  2.5145552434962398e-02 9.8250692011559126e-01 0.0000000000000000e+00  2.5497061417268551e-02 9.8296510334074572e-01 0.0000000000000000e+00  2.5811461037204862e-02 9.8339070654281713e-01 0.0000000000000000e+00  2.6129577521053955e-02 9.8383772020028448e-01 0.0000000000000000e+00  2.6448151346670706e-02 9.8430324288984283e-01 0.0000000000000000e+00  2.6732788817644088e-02 9.8473558471358413e-01 0.0000000000000000e+00  2.7042655171356633e-02 9.8522544189878969e-01 0.0000000000000000e+00  2.7309799352903064e-02 9.8566529262153091e-01 0.0000000000000000e+00  2.7595510689926311e-02 9.8615545477810018e-01 0.0000000000000000e+00  2.7859020407732131e-02 9.8662743343186354e-01 0.0000000000000000e+00  2.8109960697592827e-02 9.8709655500375759e-01 0.0000000000000000e+00  2.8370033357677349e-02 9.8760525022525503e-01 0.0000000000000000e+00  2.8594362108753296e-02 9.8806455996352716e-01 0.0000000000000000e+00  2.8837624408912379e-02 9.8858681420881778e-01 0.0000000000000000e+00  2.9048130570176058e-02 9.8906163845600292e-01 0.0000000000000000e+00  2.9263086380057066e-02 9.8957144947469955e-01 0.0000000000000000e+00  2.9468144346911293e-02 9.9008467057135496e-01 0.0000000000000000e+00  2.9651749504549525e-02 9.9056987563499066e-01 0.0000000000000000e+00  2.9844958145732983e-02 9.9111096897513773e-01 0.0000000000000000e+00  3.0007217103678679e-02 9.9159367799197917e-01 0.0000000000000000e+00  3.0178379200386195e-02 9.9213614862796007e-01 0.0000000000000000e+00  3.0327838544664403e-02 9.9264326724438756e-01 0.0000000000000000e+00  3.0470159450222786e-02 9.9316138321157577e-01 0.0000000000000000e+00  3.0608793382646271e-02 9.9370682334006277e-01 0.0000000000000000e+00  3.0725204443417968e-02 9.9420368997015651e-01 0.0000000000000000e+00  3.0845531614442905e-02 9.9476509948397362e-01 0.0000000000000000e+00  3.0943270700608448e-02 9.9526774980990185e-01 0.0000000000000000e+00  3.1039446414567476e-02 9.9581747763069961e-01 0.0000000000000000e+00  3.1122411630688865e-02 9.9635268623482065e-01 0.0000000000000000e+00  3.1192732645186075e-02 9.9687060706040698e-01 0.0000000000000000e+00  3.1258408332453559e-02 9.9743624714303925e-01 0.0000000000000000e+00  3.1307219700228268e-02 9.9794070774580557e-01 0.0000000000000000e+00  3.1351258790706132e-02 9.9850950874980959e-01 0.0000000000000000e+00  3.1381297263012448e-02 9.9902848673666156e-01 0.0000000000000000e+00  3.1402414439612808e-02 9.9957249653852487e-01 0.0000000000000000e+00  3.1413021628186634e-02 1.0001271771334341e+00 0.0000000000000000e+00  3.1413005071523670e-02 1.0006401625472632e+00 0.0000000000000000e+00  3.1401813079486349e-02 1.0012130729419373e+00 0.0000000000000000e+00  3.1382002898808839e-02 1.0017211595049487e+00 0.0000000000000000e+00  3.1349159672942307e-02 1.0022840802290325e+00 0.0000000000000000e+00  3.1307620974523047e-02 1.0028153293984758e+00 0.0000000000000000e+00  3.1256110526283784e-02 1.0033435104317752e+00 0.0000000000000000e+00  3.1190069739545901e-02 1.0039053671127249e+00 0.0000000000000000e+00  3.1120909180357204e-02 1.0044092652227530e+00 0.0000000000000000e+00  3.1031786611548744e-02 1.0049761004597575e+00 0.0000000000000000e+00  3.0941711177661556e-02 1.0054836821567208e+00 0.0000000000000000e+00  3.0834300957821317e-02 1.0060276092880553e+00 0.0000000000000000e+00  3.0717298383386660e-02 1.0065636756777865e+00 0.0000000000000000e+00  3.0596539723745052e-02 1.0070698428922424e+00 0.0000000000000000e+00  3.0452332835263739e-02 1.0076254227740191e+00 0.0000000000000000e+00  3.0314654780243637e-02 1.0081161896405875e+00 0.0000000000000000e+00  3.0149475325696104e-02 1.0086637003066128e+00 0.0000000000000000e+00  2.9986941041582553e-02 1.0091662189420496e+00 0.0000000000000000e+00  2.9809838739279507e-02 1.0096797613054382e+00 0.0000000000000000e+00  2.9615255962667977e-02 1.0102095427608919e+00 0.0000000000000000e+00  2.9428178048698808e-02 1.0106899264406470e+00 0.0000000000000000e+00  2.9207281432813547e-02 1.0112258155269522e+00 0.0000000000000000e+00  2.9001183001696462e-02 1.0116992593356053e+00 0.0000000000000000e+00  2.8764783814451834e-02 1.0122148305947662e+00 0.0000000000000000e+00  2.8527420251724434e-02 1.0127065398867650e+00 0.0000000000000000e+00  2.8286521350288099e-02 1.0131820718239262e+00 0.0000000000000000e+00  2.8015428670610659e-02 1.0136920474186843e+00 0.0000000000000000e+00  2.7764410370025087e-02 1.0141430143660302e+00 0.0000000000000000e+00  2.7471301598204136e-02 1.0146463861381765e+00 0.0000000000000000e+00  2.7196435775559469e-02 1.0150979178740871e+00 0.0000000000000000e+00  2.6896478053563187e-02 1.0155701592256792e+00 0.0000000000000000e+00  2.6584021620244872e-02 1.0160413575251253e+00 0.0000000000000000e+00  2.6284182131439907e-02 1.0164753684965777e+00 0.0000000000000000e+00  2.5940760853628373e-02 1.0169524731562074e+00 0.0000000000000000e+00  2.5627664494706999e-02 1.0173702660976010e+00 0.0000000000000000e+00  2.5269725202280602e-02 1.0178294224911526e+00 0.0000000000000000e+00  2.4925474385745921e-02 1.0182538151255673e+00 0.0000000000000000e+00  2.4570645779602350e-02 1.0186748667032648e+00 0.0000000000000000e+00  2.4186405192525118e-02 1.0191133295121138e+00 0.0000000000000000e+00  2.3831670410204033e-02 1.0195030865824202e+00 0.0000000000000000e+00  2.3422991053902081e-02 1.0199353527202131e+00 0.0000000000000000e+00  2.3049328407439909e-02 1.0203158496811486e+00 0.0000000000000000e+00  2.2636613317061335e-02 1.0207207451766409e+00 0.0000000000000000e+00  2.2223788003146838e-02 1.0211105516207561e+00 0.0000000000000000e+00  2.1821794802016556e-02 1.0214763377606295e+00 0.0000000000000000e+00  2.1372652402006760e-02 1.0218698002270667e+00 0.0000000000000000e+00  2.0966523274513885e-02 1.0222124625317592e+00 0.0000000000000000e+00  2.0502433245136811e-02 1.0225895437607850e+00 0.0000000000000000e+00  2.0069505223548563e-02 1.0229280455958756e+00 0.0000000000000000e+00  1.9613809289815862e-02 1.0232711798249308e+00 0.0000000000000000e+00  1.9137143912776523e-02 1.0236162952025805e+00 0.0000000000000000e+00  1.8693441649415707e-02 1.0239254087977632e+00 0.0000000000000000e+00  1.8189024264045693e-02 1.0242632092288086e+00 0.0000000000000000e+00  1.7734643045920463e-02 1.0245555944485139e+00 0.0000000000000000e+00  1.7227312042918087e-02 1.0248692399735835e+00 0.0000000000000000e+00  1.6736721022271688e-02 1.0251601599268960e+00 0.0000000000000000e+00  1.6248703631282706e-02 1.0254379123633346e+00 0.0000000000000000e+00  1.5717438427579208e-02 1.0257275394636449e+00 0.0000000000000000e+00  1.5236852988923673e-02 1.0259784722370693e+00 0.0000000000000000e+00  1.4689186953824464e-02 1.0262520284158752e+00 0.0000000000000000e+00  1.4189536661946011e-02 1.0264904217420194e+00 0.0000000000000000e+00  1.3652993270711577e-02 1.0267348907886382e+00 0.0000000000000000e+00  1.3110306602378495e-02 1.0269703522828038e+00 0.0000000000000000e+00  1.2597287674562991e-02 1.0271823133550824e+00 0.0000000000000000e+00  1.2023329862104679e-02 1.0274075226176891e+00 0.0000000000000000e+00  1.1510267080994781e-02 1.0275984265773443e+00 0.0000000000000000e+00  1.0933265961736929e-02 1.0278016518591195e+00 0.0000000000000000e+00  1.0391449733661075e-02 1.0279816681740768e+00 0.0000000000000000e+00  9.8388862462567232e-03 1.0281546868591935e+00 0.0000000000000000e+00  9.2543354002836541e-03 1.0283263297410667e+00 0.0000000000000000e+00  8.7219396332375923e-03 1.0284726506014654e+00 0.0000000000000000e+00  8.1191193218763235e-03 1.0286270083099769e+00 0.0000000000000000e+00  7.5778105504242738e-03 1.0287555318896706e+00 0.0000000000000000e+00  6.9866669427365953e-03 1.0288851512277553e+00 0.0000000000000000e+00  6.4077886565278106e-03 1.0290013650788241e+00 0.0000000000000000e+00  5.8492942304776896e-03 1.0291035620463884e+00 0.0000000000000000e+00  5.2366475014497737e-03 1.0292045866379811e+00 0.0000000000000000e+00  4.6900101453751794e-03 1.0292850380774543e+00 0.0000000000000000e+00  4.0734525198890103e-03 1.0293649171800967e+00 0.0000000000000000e+00  3.5082553363423221e-03 1.0294281065822182e+00 0.0000000000000000e+00  2.9182337335371105e-03 1.0294839017527251e+00 0.0000000000000000e+00  2.3125203378172982e-03 1.0295304386223736e+00 0.0000000000000000e+00  1.7540316423010783e-03 1.0295637499715595e+00 0.0000000000000000e+00  1.1283768371501087e-03 1.0295901729717896e+00 0.0000000000000000e+00  5.7241018350949403e-04 1.0296040175333065e+00 0.0000000000000000e+00  -4.2166927520307814e-05 1.0296087872261404e+00 0.0000000000000000e+00  -6.2632711653216834e-04 1.0296030714131525e+00 0.0000000000000000e+00  -1.2033515666436999e-03 1.0295876125332470e+00 0.0000000000000000e+00  -1.8213522068491663e-03 1.0295602213766017e+00 0.0000000000000000e+00  -2.3746186142188310e-03 1.0295261665763031e+00 0.0000000000000000e+00  -2.9975876344580346e-03 1.0294769997938942e+00 0.0000000000000000e+00  -3.5578813964746822e-03 1.0294229406387401e+00 0.0000000000000000e+00  -4.1549173002429114e-03 1.0293550194309256e+00 0.0000000000000000e+00  -4.7487044030367423e-03 1.0292768346020003e+00 0.0000000000000000e+00  -5.3057859966228488e-03 1.0291937621405662e+00 0.0000000000000000e+00  -5.9203783582671247e-03 1.0290910920015142e+00 0.0000000000000000e+00  -6.4634748259259685e-03 1.0289906426550028e+00 0.0000000000000000e+00  -7.0681882236792630e-03 1.0288679366752636e+00 0.0000000000000000e+00  -7.6274109568379295e-03 1.0287441483339816e+00 0.0000000000000000e+00  -8.1939924042117550e-03 1.0286084834230733e+00 0.0000000000000000e+00  -8.7839575714411238e-03 1.0284560914999705e+00 0.0000000000000000e+00  -9.3164614899057252e-03 1.0283086371597514e+00 0.0000000000000000e+00  -9.9120523932294188e-03 1.0281323826991726e+00 0.0000000000000000e+00  -1.0439992673789571e-02 1.0279659616189536e+00 0.0000000000000000e+00  -1.1011739537826592e-02 1.0277747164879498e+00 0.0000000000000000e+00  -1.1562650024342135e-02 1.0275793791972423e+00 0.0000000000000000e+00  -1.2090454100565510e-02 1.0273818250848907e+00 0.0000000000000000e+00  -1.2660961394008434e-02 1.0271565582507991e+00 0.0000000000000000e+00  -1.3164563039612267e-02 1.0269473368003876e+00 0.0000000000000000e+00  -1.3726395572722179e-02 1.0267021387023465e+00 0.0000000000000000e+00  -1.4233850606307856e-02 1.0264697019116724e+00 0.0000000000000000e+00  -1.4759760709106663e-02 1.0262175047611872e+00 0.0000000000000000e+00  -1.5290657837978876e-02 1.0259508915538298e+00 0.0000000000000000e+00  -1.5775991868209858e-02 1.0256962586123002e+00 0.0000000000000000e+00  -1.6312219599483653e-02 1.0254024072077468e+00 0.0000000000000000e+00  -1.6782593892939474e-02 1.0251334632143723e+00 0.0000000000000000e+00  -1.7297435366198429e-02 1.0248266749504653e+00 0.0000000000000000e+00  -1.7778449597859080e-02 1.0245278844139498e+00 0.0000000000000000e+00  -1.8250219949947886e-02 1.0242229804153182e+00 0.0000000000000000e+00  -1.8746880086949611e-02 1.0238887834028940e+00 0.0000000000000000e+00  -1.9186634422401729e-02 1.0235811026946964e+00 0.0000000000000000e+00  -1.9675260462581813e-02 1.0232256730673328e+00 0.0000000000000000e+00  -2.0107800248978243e-02 1.0228986062703915e+00 0.0000000000000000e+00  -2.0564543745110870e-02 1.0225399447804897e+00 0.0000000000000000e+00  -2.1009958310099608e-02 1.0221763932841095e+00 0.0000000000000000e+00  -2.1424034760572485e-02 1.0218255766380666e+00 0.0000000000000000e+00  -2.1873012726702650e-02 1.0214304623375290e+00 0.0000000000000000e+00  -2.2264083285934259e-02 1.0210731456615330e+00 0.0000000000000000e+00  -2.2693858133103793e-02 1.0206655058852823e+00 0.0000000000000000e+00  -2.3083443125389277e-02 1.0202816572730204e+00 0.0000000000000000e+00  -2.3474505084636506e-02 1.0198817975691457e+00 0.0000000000000000e+00  -2.3872896810513435e-02 1.0194584819876922e+00 0.0000000000000000e+00  -2.4227871223608172e-02 1.0190668356887034e+00 0.0000000000000000e+00  -2.4617770122286879e-02 1.0186198434948468e+00 0.0000000000000000e+00  -2.4956808714616734e-02 1.0182158422065501e+00 0.0000000000000000e+00  -2.5319029331435351e-02 1.0177672796840844e+00 0.0000000000000000e+00  -2.5659433833568609e-02 1.0173285573855675e+00 0.0000000000000000e+00  -2.5981613870072792e-02 1.0168967529866599e+00 0.0000000000000000e+00  -2.6321435117143868e-02 1.0164223571776798e+00 0.0000000000000000e+00  -2.6615842624797947e-02 1.0159942809798046e+00 0.0000000000000000e+00  -2.6937743962339052e-02 1.0155063889911131e+00 0.0000000000000000e+00  -2.7220949859971026e-02 1.0150584042683479e+00 0.0000000000000000e+00  -2.7509844958422063e-02 1.0145815289087006e+00 0.0000000000000000e+00  -2.7792458519833925e-02 1.0140935607157306e+00 0.0000000000000000e+00  -2.8045947910204216e-02 1.0136358712888225e+00 0.0000000000000000e+00  -2.8318050311439125e-02 1.0131210815288683e+00 0.0000000000000000e+00  -2.8550156288793462e-02 1.0126604809282860e+00 0.0000000000000000e+00  -2.8797957268608117e-02 1.0121441119458929e+00 0.0000000000000000e+00  -2.9020962217527774e-02 1.0116548376339265e+00 0.0000000000000000e+00  -2.9234777938869326e-02 1.0111607929352231e+00 0.0000000000000000e+00  -2.9450813488432235e-02 1.0106331683189118e+00 0.0000000000000000e+00  -2.9636032060786483e-02 1.0101545227085600e+00 0.0000000000000000e+00  -2.9834027170634627e-02 1.0096115008996644e+00 0.0000000000000000e+00  -3.0001662787468440e-02 1.0091220135787515e+00 0.0000000000000000e+00  -3.0172274706222139e-02 1.0085904946910844e+00 0.0000000000000000e+00  -3.0329461995929213e-02 1.0080650242031306e+00 0.0000000000000000e+00  -3.0469453969993281e-02 1.0075618599119196e+00 0.0000000000000000e+00  -3.0612202218801742e-02 1.0070064967777228e+00 0.0000000000000000e+00  -3.0729225388938047e-02 1.0065112812470651e+00 0.0000000000000000e+00  -3.0849677900966474e-02 1.0059531298525088e+00 0.0000000000000000e+00  -3.0950148322423470e-02 1.0054383733610284e+00 0.0000000000000000e+00  -3.1043690103841080e-02 1.0049046135520989e+00 0.0000000000000000e+00  -3.1129234333254041e-02 1.0043520662339540e+00 0.0000000000000000e+00  -3.1197756316458533e-02 1.0038447394458965e+00 0.0000000000000000e+00  -3.1263416686852390e-02 1.0032745429100192e+00 0.0000000000000000e+00  -3.1311839005315513e-02 1.0027668476019123e+00 0.0000000000000000e+00  -3.1354334269472865e-02 1.0022070642625234e+00 0.0000000000000000e+00  -3.1384366830966265e-02 1.0016712036090889e+00 0.0000000000000000e+00  -3.1403764948525002e-02 1.0011449836456530e+00 0.0000000000000000e+00  -3.1413514191919248e-02 1.0005778905503604e+00 0.0000000000000000e+00  -3.1412449065551705e-02 1.0000707724175917e+00 0.0000000000000000e+00  -3.1400188440622874e-02 9.9949909324760400e-01 0.0000000000000000e+00  -3.1379053025366789e-02 9.9898296682943799e-01 0.0000000000000000e+00  -3.1346146336592239e-02 9.9843489464358259e-01 0.0000000000000000e+00  -3.1302377278703886e-02 9.9788607429078713e-01 0.0000000000000000e+00  -3.1251624309482237e-02 9.9737284156753814e-01 0.0000000000000000e+00  -3.1184296382079084e-02 9.9680443445058142e-01 0.0000000000000000e+00  -3.1114943331819789e-02 9.9630157418966880e-01 0.0000000000000000e+00  -3.1026849639200813e-02 9.9574167407251801e-01 0.0000000000000000e+00  -3.0934647235788107e-02 9.9522137366073005e-01 0.0000000000000000e+00  -3.0831311431732171e-02 9.9469576481605260e-01 0.0000000000000000e+00  -3.0712063456861841e-02 9.9414553399307215e-01 0.0000000000000000e+00  -3.0594678203880073e-02 9.9364916812051141e-01 0.0000000000000000e+00  -3.0451882790988271e-02 9.9309265849838180e-01 0.0000000000000000e+00  -3.0314924374445353e-02 9.9259805034637005e-01 0.0000000000000000e+00  -3.0155860701721594e-02 9.9206260156661941e-01 0.0000000000000000e+00  -2.9990999082157181e-02 9.9154413902360139e-01 0.0000000000000000e+00  -2.9823081808320530e-02 9.9104796838806575e-01 0.0000000000000000e+00  -2.9629448910031834e-02 9.9050952599214093e-01 0.0000000000000000e+00  -2.9448236680744953e-02 9.9003358666101060e-01 0.0000000000000000e+00  -2.9234328259862434e-02 9.8950166221223368e-01 0.0000000000000000e+00  -2.9029854974031436e-02 9.8901950322648757e-01 0.0000000000000000e+00  -2.8807085499033096e-02 9.8851976