<?xml version="1.0"?>
<VTKFile type="UnstructuredGrid"  version="0.1"  >
<UnstructuredGrid>
<Piece  NumberOfPoints="4286" NumberOfCells="6788">
<Points>
<DataArray  type="Float64"  NumberOfComponents="3"  format="ascii">0 0.01 0  10 0.01 0  0 1.014426169383459 0  10 1.014426169383459 0  0.007129524987038337 0.009997491741717768 0  0.01258064459049757 0.00999219056738478 0  0.01872173241756402 0.009982708334120727 0  0.02429919625640796 0.009970876572043954 0  0.03017238705920286 0.009955108531615313 0  0.03612352734296466 0.0099356743715591 0  0.04164979236492252 0.009914517792428084 0  0.04780928449023854 0.009887415768096998 0  0.05327287671237849 0.009860276931383746 0  0.0593436395885565 0.009826715421083503 0  0.06505608699933001 0.009791870631895848 0  0.07077243060783153 0.009753845329312128 0  0.07684085351634186 0.009710036052663748 0  0.08230528612367993 0.009667566921662384 0  0.08846525752759338 0.009616276826848907 0  0.09398926586603956 0.0095672187064786 0  0.09994377871281757 0.009511110804477986 0  0.10581288515308 0.009452550633355501 0  0.1113930001121819 0.009393893683773193 0  0.1175326299024069 0.009326020378011352 0  0.122983161250664 0.009262856809916281 0  0.1290978349347763 0.009188765415777931 0  0.1347300222736412 0.00911751981665075 0  0.1405327472005438 0.009041131768776852 0  0.1465421455697866 0.008958856277281909 0  0.1520341809431761 0.008880870879718691 0  0.1581991754706344 0.00879018143976357 0  0.1636834803794234 0.008706732874359017 0  0.1697073563005918 0.008612096527554045 0  0.1754901396361989 0.008518345936558386 0  0.1811391035120075 0.008424050210098115 0  0.1872444279222087 0.00831915423323064 0  0.1926961446341008 0.008222899998379215 0  0.198841090009393 0.008111516418624823 0  0.2044064770158165 0.008008028244452866 0  0.2102948627703611 0.007895869216798803 0  0.2162299794791283 0.007780085801116003 0  0.2217647046821167 0.007669675498109103 0  0.2279204403470532 0.007544154739747676 0  0.2333791472114919 0.007430485124751003 0  0.2394590817234977 0.0073013084386626 0  0.245152498789355 0.007177928079207972 0  0.2508861115607116 0.007051356111670669 0  0.2569419868439766 0.006915186417023598 0  0.2624099649457279 0.006790084113692359 0  0.2685711825796066 0.006646722567663751 0  0.274083748205357 0.006516341894728842 0  0.2800541704182985 0.00637292855786236 0  0.2859022845836161 0.006230279166502627 0  0.291495955429921 0.006091868246150131 0  0.2976275706217687 0.005937986548763313 0  0.3030757324287757 0.005799406374294222 0  0.3091980118239236 0.005641654227187252 0  0.3148109405089491 0.005495191514879527 0  0.3206341933715942 0.005341435282378838 0  0.3266248575896781 0.005181393525330103 0  0.3321252080346692 0.005032833254881577 0  0.3382880718234609 0.004864596209960478 0  0.3437628463580178 0.004713611578807419 0  0.3498021006600692 0.004545443593512952 0  0.3555594631656461 0.004383601001460968 0  0.3612291099056053 0.004222822711549606 0  0.3673210805066339 0.004048576418709386 0  0.3727746135437823 0.003891330909934085 0  0.3789246700786391 0.003712634483246944 0  0.3844721023230384 0.00355025746928806 0  0.3903845048135511 0.003376011435332509 0  0.3962935688476314 0.003200699755406988 0  0.4018430601204535 0.00303505085978487 0  0.4079921977692303 0.002850427660455144 0  0.4134449905916002 0.002685819499171436 0  0.4195385366679084 0.002500937932218923 0  0.425204482428441 0.002328206591247292 0  0.4309651825948974 0.00215183074136113 0  0.4370014133195289 0.001966263547608745 0  0.4424769325836848 0.00179732019881714 0  0.4486395183564056 0.001606544730410899 0  0.4541373275735043 0.001435838569361521 0  0.4601308451156257 0.001249254088784412 0  0.4659488863550298 0.001067707976620331 0  0.471564807260988 0.0008921302908496037 0  0.4776843759254726 0.0007004920228137959 0  0.4831317484445766 0.0005296836585198918 0  0.4892643513384632 0.0003372062279158936 0  0.4948528283485032 0.000161696161435303 0  0.5007056813361916 -2.216943068070812e-05 0  0.5066699093509902 -0.000209526046556915 0  0.5121845298566023 -0.0003826949545447442 0  0.5183439831944545 -0.0005759742926309219 0  0.5238088617282698 -0.0007472800272428554 0  0.5298681543527348 -0.0009369594486414562 0  0.5355929349139432 -0.001115856450691032 0  0.5412927239341832 -0.001293613669039852 0  0.5473668732672543 -0.001482588207084091 0  0.5528259073001393 -0.001651967505962102 0  0.5589819336317072 -0.001842386787779294 0  0.5645100189486582 -0.002012797049529044 0  0.5704524332663232 -0.002195301346534757 0  0.5763298911552834 -0.002375058665203144 0  0.5819006708717119 -0.002544689651648297 0  0.5880413281562127 -0.002730768313747055 0  0.5934904284812221 -0.002895042191696308 0  0.5995995320960693 -0.003078202338538874 0  0.605236779888003 -0.003246210954182579 0  0.6110299855290301 -0.003417806240976177 0  0.6170432999212266 -0.00359472323302265 0  0.6225307972792151 -0.00375505261922207 0  0.6286944373476531 -0.003933803567825084 0  0.6341794289295242 -0.004091634709336539 0  0.6401977648984302 -0.004263413669385436 0  0.6459846030577213 -0.004427148756161272 0  0.6516277670629291 -0.004585409549508515 0  0.6577342305863492 -0.004755038487876419 0  0.6631843111407589 -0.004904958327357115 0  0.6693271588517591 -0.005072208653571043 0  0.6748942591145469 -0.005222152905474348 0  0.6807781354428797 -0.005378892074409919 0  0.6867158102497221 -0.005535201343768038 0  0.6922478556369909 -0.005679100421160843 0  0.6984036264198542 -0.005837205328254034 0  0.7038624132928571 -0.005975584427524931 0  0.7099402809449575 -0.006127588021236129 0  0.7156361945945205 -0.006268012368771779 0  0.7213667017809595 -0.006407263887957157 0  0.7274241898103784 -0.006552202568912044 0  0.7328913375361901 -0.006680980644346233 0  0.7390522654079078 -0.006823736587757829 0  0.7445663161830813 -0.006949337256267011 0  0.7505345306161221 -0.007082931996795786 0  0.7563856967966242 -0.007211490056377221 0  0.7619775509571868 -0.007332073958440476 0  0.7681106054434813 -0.007461725199742056 0  0.7735594228940573 -0.007574589702563127 0  0.7796809699364847 -0.007698739982391196 0  0.7852974086111042 -0.007810142587226769 0  0.7911178568436495 -0.007923025648348906 0  0.797112403703894 -0.008036515862006795 0  0.8026119630288198 -0.008138129173272899 0  0.8087760180262171 -0.008249131188213875 0  0.814253500572072 -0.008345174877796967 0  0.8202905515677629 -0.008448166667805387 0  0.8260544286221699 -0.008543663134562481 0  0.831720415905675 -0.008634807324656511 0  0.8378167080097026 -0.008729817306667463 0  0.8432709709919499 -0.008812108559864256 0  0.8494209576248264 -0.008901791974276371 0  0.8549745826348545 -0.008979924427376591 0  0.8608814329347291 -0.009060026011188804 0  0.8667998142885592 -0.009137155111096256 0  0.8723460990452367 -0.009206568509458774 0  0.8784989383774584 -0.009280301817794542 0  0.8839552890388401 -0.009342788637451834 0  0.8900456692707091 -0.009409293585850673 0  0.8957233874467343 -0.009468190513990782 0  0.9014754209053449 -0.009524786393944277 0  0.9075213579987256 -0.009580921173179099 0  0.9129954731058688 -0.009628765913494807 0  0.9191593188847452 -0.009679229788646495 0  0.9246655330424429 -0.009721240864333262 0  0.9306503084472221 -0.009763603884533442 0  0.9364847200361547 -0.009801580348484516 0  0.9420914259676206 -0.009834972127394636 0  0.948219177636862 -0.009867976960504428 0  0.9536688877131657 -0.009894257783109666 0  0.9597979104438458 -0.009920349306153329 0  0.9654020314719589 -0.009940987600901847 0  0.9712398170272581 -0.009959209624459757 0  0.9772219132298864 -0.009974407121723252 0  0.9827297975109929 -0.009985285083248089 0  0.9888934840407251 -0.009993913310034224 0  0.9943667421923366 -0.009998434045983932 0  1.000414962337846 -0.009999991502249178 0  1.00616395254491 -0.009998125110441144 0  1.011844857354635 -0.009993077234903055 0  1.017933801412069 -0.009984132829796667 0  1.023390946643176 -0.00997301205183276 0  1.029544679732296 -0.009956955598792184 0  1.035089558108845 -0.009939300412459717 0  1.041010936359372 -0.009917116481575694 0  1.04691554237944 -0.00989157814857561 0  1.052471258615448 -0.009864440751261633 0  1.05862104751389 -0.009830897850136421 0  1.064075481579663 -0.009798076706746352 0  1.070173358231585 -0.009757978136698224 0  1.075837941143087 -0.00971752009646258 0  1.081604377355612 -0.009673173917302162 0  1.087640686528322 -0.009623351755525641 0  1.093119387704205 -0.009575135453199036 0  1.099284093826516 -0.009517491101966447 0  1.104783734376909 -0.009463052176492596 0  1.110779897618174 -0.009400480030121557 0  1.116599992234411 -0.00933655469875222 0  1.122217899723542 -0.009271889359757672 0  1.128339818747432 -0.009198135031144493 0  1.133789446190431 -0.00912961705214143 0  1.139923317158062 -0.009049295973540348 0  1.145515844317945 -0.008973134373133167 0  1.151367773813766 -0.008890475161473248 0  1.157336906671575 -0.008803064948780913 0  1.16285160438384 -0.008719557366803981 0  1.16901331600552 -0.008623157866544266 0  1.174481522907442 -0.00853490108265173 0  1.180539122189597 -0.008434191931863186 0  1.186271617394136 -0.008336073959344166 0  1.191966996821913 -0.008235914041393521 0  1.198046448076202 -0.008126091334838595 0  1.203505695906331 -0.008024945109277802 0  1.209661806077474 -0.007908057515838151 0  1.21519584913737 -0.007800455577732041 0  1.221132109188887 -0.00768241304184519 0  1.227019087412133 -0.007562711583992629 0  1.232585135446325 -0.007447155722966398 0  1.238729389023077 -0.007316953404904543 0  1.244180486899644 -0.007199156086382225 0  1.250286093435722 -0.007064709646262071 0  1.255932842016573 -0.006938052500145445 0  1.261716857103797 -0.006806053534187844 0  1.26773845151126 -0.006666245775332091 0  1.273222687278595 -0.006536836953056475 0  1.279386853652711 -0.00638906998029936 0  1.284876650734994 -0.006255450389977176 0  1.290887326898431 -0.00610702037198264 0  1.296685536664392 -0.00596177282270944 0  1.30231949087952 -0.005818744638503708 0  1.308431215520824
[...]
<PointData  Vectors="Velocity"> 
<DataArray  type="Float64"  Name="Velocity"  NumberOfComponents="3" format="ascii">-6.9343848231820240e-10 9.7039118676948566e-01 0.0000000000000000e+00  -6.9343848231820240e-10 9.7039118676948566e-01 0.0000000000000000e+00  7.2298052863404087e-06 -2.6851378268169232e-02 0.0000000000000000e+00  7.2298052863404087e-06 -2.6851378268169232e-02 0.0000000000000000e+00  6.8276949437849740e-04 9.7039837325147216e-01 0.0000000000000000e+00  1.2046096748347241e-03 9.7041356190806671e-01 0.0000000000000000e+00  1.7921087051762906e-03 9.7044073059854541e-01 0.0000000000000000e+00  2.3251657525126118e-03 9.7047463240050635e-01 0.0000000000000000e+00  2.8857803499329751e-03 9.7051981478364135e-01 0.0000000000000000e+00  3.4529207767754260e-03 9.7057550524493952e-01 0.0000000000000000e+00  3.9785893223783664e-03 9.7063613546815553e-01 0.0000000000000000e+00  4.5631956748872961e-03 9.7071380996380163e-01 0.0000000000000000e+00  5.0804551998538680e-03 9.7079159647849034e-01 0.0000000000000000e+00  5.6535890108019154e-03 9.7088780115288387e-01 0.0000000000000000e+00  6.1911842028963063e-03 9.7098769529691076e-01 0.0000000000000000e+00  6.7273230023335200e-03 9.7109672000399239e-01 0.0000000000000000e+00  7.2943108830607921e-03 9.7122234431445498e-01 0.0000000000000000e+00  7.8027987868849909e-03 9.7134414216020082e-01 0.0000000000000000e+00  8.3734814654108404e-03 9.7149125981793338e-01 0.0000000000000000e+00  8.8828122866812086e-03 9.7163199780808907e-01 0.0000000000000000e+00  9.4290913126134999e-03 9.7179298652638302e-01 0.0000000000000000e+00  9.9645787131219122e-03 9.7196104195430033e-01 0.0000000000000000e+00  1.0470823863038842e-02 9.7212940662854253e-01 0.0000000000000000e+00  1.1024416051714014e-02 9.7232426406632400e-01 0.0000000000000000e+00  1.1512727936526680e-02 9.7250563745563878e-01 0.0000000000000000e+00  1.2056844860537911e-02 9.7271843646905931e-01 0.0000000000000000e+00  1.2554418857453099e-02 9.7292310938854287e-01 0.0000000000000000e+00  1.3063277842123945e-02 9.7314260654422435e-01 0.0000000000000000e+00  1.3586051289364911e-02 9.7337907988913042e-01 0.0000000000000000e+00  1.4059923856165437e-02 9.7360327991520290e-01 0.0000000000000000e+00  1.4587262320398822e-02 9.7386407270176945e-01 0.0000000000000000e+00  1.5052142791467294e-02 9.7410410935435565e-01 0.0000000000000000e+00  1.5558003097824204e-02 9.7437640359563016e-01 0.0000000000000000e+00  1.6038780386398121e-02 9.7464623026466213e-01 0.0000000000000000e+00  1.6503708444675955e-02 9.7491770735796723e-01 0.0000000000000000e+00  1.7000786058706679e-02 9.7521979774049272e-01 0.0000000000000000e+00  1.7439759262845758e-02 9.7549708871046581e-01 0.0000000000000000e+00  1.7928861748555198e-02 9.7581807129546805e-01 0.0000000000000000e+00  1.8366487139782967e-02 9.7611640350386653e-01 0.0000000000000000e+00  1.8823834648418455e-02 9.7643984220581370e-01 0.0000000000000000e+00  1.9278750123371598e-02 9.7677385353347668e-01 0.0000000000000000e+00  1.9697356782495946e-02 9.7709248016512507e-01 0.0000000000000000e+00  2.0156413037175306e-02 9.7745484948875239e-01 0.0000000000000000e+00  2.0557610449741116e-02 9.7778313037753450e-01 0.0000000000000000e+00  2.0997817777328225e-02 9.7815634060703871e-01 0.0000000000000000e+00  2.1403550660404540e-02 9.7851294893795726e-01 0.0000000000000000e+00  2.1805669486009292e-02 9.7887892855044656e-01 0.0000000000000000e+00  2.2223187420862201e-02 9.7927282483397549e-01 0.0000000000000000e+00  2.2593696857756827e-02 9.7963485749219004e-01 0.0000000000000000e+00  2.3003663743028924e-02 9.8004991017916210e-01 0.0000000000000000e+00  2.3363615258865263e-02 9.8042754714129243e-01 0.0000000000000000e+00  2.3746003586451195e-02 9.8084311423093229e-01 0.0000000000000000e+00  2.4112932805293547e-02 9.8125665724216193e-01 0.0000000000000000e+00  2.4456703750391648e-02 9.8165809538710669e-01 0.0000000000000000e+00  2.4825327757697042e-02 9.8210461369238411e-01 0.0000000000000000e+00  2.5145551869550163e-02 9.8250692011863383e-01 0.0000000000000000e+00  2.5497061236903620e-02 9.8296510332543718e-01 0.0000000000000000e+00  2.5811461442082208e-02 9.8339070651116001e-01 0.0000000000000000e+00  2.6129577240516767e-02 9.8383772019802096e-01 0.0000000000000000e+00  2.6448148913641369e-02 9.8430324294430382e-01 0.0000000000000000e+00  2.6732786563729089e-02 9.8473558476795775e-01 0.0000000000000000e+00  2.7042653564686076e-02 9.8522544193750961e-01 0.0000000000000000e+00  2.7309796382306319e-02 9.8566529270467262e-01 0.0000000000000000e+00  2.7595497171552855e-02 9.8615545516324354e-01 0.0000000000000000e+00  2.7859014217959412e-02 9.8662743361013161e-01 0.0000000000000000e+00  2.8109948916095497e-02 9.8709655534074603e-01 0.0000000000000000e+00  2.8370028277812744e-02 9.8760525037342195e-01 0.0000000000000000e+00  2.8594357348243352e-02 9.8806456010249222e-01 0.0000000000000000e+00  2.8837609476076297e-02 9.8858681464520881e-01 0.0000000000000000e+00  2.9048109919080543e-02 9.8906163906222089e-01 0.0000000000000000e+00  2.9263075797549037e-02 9.8957144979050649e-01 0.0000000000000000e+00  2.9468131650542857e-02 9.9008467094811492e-01 0.0000000000000000e+00  2.9651747000466511e-02 9.9056987571059507e-01 0.0000000000000000e+00  2.9844954234630204e-02 9.9111096909346486e-01 0.0000000000000000e+00  3.0007215501186589e-02 9.9159367804111853e-01 0.0000000000000000e+00  3.0178376638817884e-02 9.9213614870525346e-01 0.0000000000000000e+00  3.0327829939888751e-02 9.9264326751779419e-01 0.0000000000000000e+00  3.0470156483534419e-02 9.9316138330441617e-01 0.0000000000000000e+00  3.0608789397355812e-02 9.9370682346608774e-01 0.0000000000000000e+00  3.0725204080043408e-02 9.9420368998638931e-01 0.0000000000000000e+00  3.0845529763747721e-02 9.9476509954588543e-01 0.0000000000000000e+00  3.0943268483994927e-02 9.9526774988156075e-01 0.0000000000000000e+00  3.1039448212341093e-02 9.9581747758516526e-01 0.0000000000000000e+00  3.1122412808427116e-02 9.9635268620457784e-01 0.0000000000000000e+00  3.1192732896882968e-02 9.9687060706876640e-01 0.0000000000000000e+00  3.1258408183244712e-02 9.9743624715473678e-01 0.0000000000000000e+00  3.1307217818536487e-02 9.9794070780532718e-01 0.0000000000000000e+00  3.1351260806597517e-02 9.9850950870245470e-01 0.0000000000000000e+00  3.1381301426352252e-02 9.9902848662713939e-01 0.0000000000000000e+00  3.1402417640431599e-02 9.9957249645398016e-01 0.0000000000000000e+00  3.1413023844863566e-02 1.0001271770767299e+00 0.0000000000000000e+00  3.1413008673524638e-02 1.0006401624496279e+00 0.0000000000000000e+00  3.1401818904121720e-02 1.0012130728045014e+00 0.0000000000000000e+00  3.1382007182377790e-02 1.0017211593951099e+00 0.0000000000000000e+00  3.1349164616099885e-02 1.0022840801131196e+00 0.0000000000000000e+00  3.1307622898261597e-02 1.0028153293448521e+00 0.0000000000000000e+00  3.1256112086774729e-02 1.0033435103745474e+00 0.0000000000000000e+00  3.1190071293829540e-02 1.0039053670561209e+00 0.0000000000000000e+00  3.1120910164740143e-02 1.0044092651822796e+00 0.0000000000000000e+00  3.1031787076806882e-02 1.0049761004536821e+00 0.0000000000000000e+00  3.0941711692729509e-02 1.0054836821421778e+00 0.0000000000000000e+00  3.0834301979113236e-02 1.0060276092665752e+00 0.0000000000000000e+00  3.0717299066149777e-02 1.0065636756673819e+00 0.0000000000000000e+00  3.0596539960046739e-02 1.0070698429088569e+00 0.0000000000000000e+00  3.0452333741035245e-02 1.0076254227533188e+00 0.0000000000000000e+00  3.0314653626258584e-02 1.0081161897082147e+00 0.0000000000000000e+00  3.0149476090409678e-02 1.0086637002878873e+00 0.0000000000000000e+00  2.9986941469651095e-02 1.0091662189267570e+00 0.0000000000000000e+00  2.9809839723584315e-02 1.0096797612544466e+00 0.0000000000000000e+00  2.9615256147786977e-02 1.0102095427524240e+00 0.0000000000000000e+00  2.9428177792150557e-02 1.0106899264384976e+00 0.0000000000000000e+00  2.9207281389952496e-02 1.0112258155234901e+00 0.0000000000000000e+00  2.9001180674320101e-02 1.0116992594132563e+00 0.0000000000000000e+00  2.8764783593227004e-02 1.0122148305878103e+00 0.0000000000000000e+00  2.8527419798385755e-02 1.0127065398947284e+00 0.0000000000000000e+00  2.8286520742369120e-02 1.0131820718179931e+00 0.0000000000000000e+00  2.8015429191473862e-02 1.0136920473861093e+00 0.0000000000000000e+00  2.7764408795113538e-02 1.0141430143856076e+00 0.0000000000000000e+00  2.7471303577268923e-02 1.0146463860576407e+00 0.0000000000000000e+00  2.7196441720921116e-02 1.0150979176707851e+00 0.0000000000000000e+00  2.6896480590804735e-02 1.0155701591404336e+00 0.0000000000000000e+00  2.6584022185520542e-02 1.0160413574992706e+00 0.0000000000000000e+00  2.6284181871680048e-02 1.0164753684840853e+00 0.0000000000000000e+00  2.5940740090992041e-02 1.0169524737118030e+00 0.0000000000000000e+00  2.5627647660642964e-02 1.0173702665340802e+00 0.0000000000000000e+00  2.5269721268668003e-02 1.0178294225762858e+00 0.0000000000000000e+00  2.4925468856352100e-02 1.0182538152672598e+00 0.0000000000000000e+00  2.4570634467350527e-02 1.0186748670093551e+00 0.0000000000000000e+00  2.4186402076920858e-02 1.0191133296128270e+00 0.0000000000000000e+00  2.3831652998335329e-02 1.0195030870498603e+00 0.0000000000000000e+00  2.3422976866057030e-02 1.0199353531010515e+00 0.0000000000000000e+00  2.3049315359338629e-02 1.0203158500087206e+00 0.0000000000000000e+00  2.2636608088671177e-02 1.0207207453006066e+00 0.0000000000000000e+00  2.2223784182767718e-02 1.0211105517254073e+00 0.0000000000000000e+00  2.1821791932596171e-02 1.0214763378445066e+00 0.0000000000000000e+00  2.1372650924752309e-02 1.0218698002823274e+00 0.0000000000000000e+00  2.0966517687523459e-02 1.0222124627104547e+00 0.0000000000000000e+00  2.0502430291219561e-02 1.0225895438566563e+00 0.0000000000000000e+00  2.0069504831270481e-02 1.0229280456349643e+00 0.0000000000000000e+00  1.9613813255000896e-02 1.0232711798153202e+00 0.0000000000000000e+00  1.9137152199941290e-02 1.0236162951631211e+00 0.0000000000000000e+00  1.8693448335193912e-02 1.0239254088208274e+00 0.0000000000000000e+00  1.8189027739990111e-02 1.0242632092479398e+00 0.0000000000000000e+00  1.7734645515049934e-02 1.0245555944912756e+00 0.0000000000000000e+00  1.7227312057968142e-02 1.0248692399819042e+00 0.0000000000000000e+00  1.6736719976761051e-02 1.0251601599520210e+00 0.0000000000000000e+00  1.6248704344904580e-02 1.0254379123569766e+00 0.0000000000000000e+00  1.5717439088030770e-02 1.0257275394628980e+00 0.0000000000000000e+00  1.5236855115768019e-02 1.0259784722370342e+00 0.0000000000000000e+00  1.4689188681453559e-02 1.0262520284279146e+00 0.0000000000000000e+00  1.4189536961398097e-02 1.0264904217500062e+00 0.0000000000000000e+00  1.3652993570904617e-02 1.0267348908023439e+00 0.0000000000000000e+00  1.3110307049651623e-02 1.0269703522920408e+00 0.0000000000000000e+00  1.2597288303333438e-02 1.0271823133641220e+00 0.0000000000000000e+00  1.2023330616917150e-02 1.0274075226354100e+00 0.0000000000000000e+00  1.1510267000696562e-02 1.0275984265835651e+00 0.0000000000000000e+00  1.0933268113264973e-02 1.0278016518890951e+00 0.0000000000000000e+00  1.0391451173450344e-02 1.0279816681924629e+00 0.0000000000000000e+00  9.8388866015995946e-03 1.0281546868604547e+00 0.0000000000000000e+00  9.2543360630530196e-03 1.0283263297535308e+00 0.0000000000000000e+00  8.7219401264712702e-03 1.0284726505947730e+00 0.0000000000000000e+00  8.1191195784859459e-03 1.0286270083179547e+00 0.0000000000000000e+00  7.5778128076431674e-03 1.0287555319349035e+00 0.0000000000000000e+00  6.9866675195490438e-03 1.0288851512578412e+00 0.0000000000000000e+00  6.4077898148904742e-03 1.0290013651070289e+00 0.0000000000000000e+00  5.8492979860191360e-03 1.0291035621443538e+00 0.0000000000000000e+00  5.2366490036528735e-03 1.0292045866745476e+00 0.0000000000000000e+00  4.6900120640182832e-03 1.0292850381381562e+00 0.0000000000000000e+00  4.0734523708244536e-03 1.0293649172050279e+00 0.0000000000000000e+00  3.5082541323276672e-03 1.0294281065572495e+00 0.0000000000000000e+00  2.9182342287861459e-03 1.0294839018002750e+00 0.0000000000000000e+00  2.3125205177640103e-03 1.0295304386576043e+00 0.0000000000000000e+00  1.7540314964110421e-03 1.0295637499690842e+00 0.0000000000000000e+00  1.1283759857053598e-03 1.0295901729655776e+00 0.0000000000000000e+00  5.7241008596792264e-04 1.0296040176046353e+00 0.0000000000000000e+00  -4.2167469318588019e-05 1.0296087872591719e+00 0.0000000000000000e+00  -6.2632683072957743e-04 1.0296030715209361e+00 0.0000000000000000e+00  -1.2033508168763517e-03 1.0295876126020354e+00 0.0000000000000000e+00  -1.8213527271036590e-03 1.0295602213975832e+00 0.0000000000000000e+00  -2.3746186507912362e-03 1.0295261666448388e+00 0.0000000000000000e+00  -2.9975883931350994e-03 1.0294769999283522e+00 0.0000000000000000e+00  -3.5578825233865199e-03 1.0294229406912299e+00 0.0000000000000000e+00  -4.1549193278753692e-03 1.0293550195336425e+00 0.0000000000000000e+00  -4.7487054853488902e-03 1.0292768346400691e+00 0.0000000000000000e+00  -5.3057865847410757e-03 1.0291937621657616e+00 0.0000000000000000e+00  -5.9203790685152186e-03 1.0290910920333827e+00 0.0000000000000000e+00  -6.4634774937518394e-03 1.0289906427368525e+00 0.0000000000000000e+00  -7.0681895986072036e-03 1.0288679367171523e+00 0.0000000000000000e+00  -7.6274137251654836e-03 1.0287441484109638e+00 0.0000000000000000e+00  -8.1939933185651119e-03 1.0286084834482869e+00 0.0000000000000000e+00  -8.7839585569928040e-03 1.0284560915164183e+00 0.0000000000000000e+00  -9.3164626418677197e-03 1.0283086371865260e+00 0.0000000000000000e+00  -9.9120549268962767e-03 1.0281323827779347e+00 0.0000000000000000e+00  -1.0439993570286030e-02 1.0279659616709731e+00 0.0000000000000000e+00  -1.1011742556385311e-02 1.0277747165811000e+00 0.0000000000000000e+00  -1.1562652197123576e-02 1.0275793792253110e+00 0.0000000000000000e+00  -1.2090455235448258e-02 1.0273818251014484e+00 0.0000000000000000e+00  -1.2660963438276978e-02 1.0271565582813700e+00 0.0000000000000000e+00  -1.3164563463344466e-02 1.0269473368282755e+00 0.0000000000000000e+00  -1.3726399957848801e-02 1.0267021387390385e+00 0.0000000000000000e+00  -1.4233855695726973e-02 1.0264697018996978e+00 0.0000000000000000e+00  -1.4759763632296698e-02 1.0262175047297493e+00 0.0000000000000000e+00  -1.5290659875756866e-02 1.0259508915074533e+00 0.0000000000000000e+00  -1.5775993831121906e-02 1.0256962585333338e+00 0.0000000000000000e+00  -1.6312220980032974e-02 1.0254024071664518e+00 0.0000000000000000e+00  -1.6782595854397828e-02 1.0251334631599287e+00 0.0000000000000000e+00  -1.7297437026020296e-02 1.0248266749339134e+00 0.0000000000000000e+00  -1.7778450634279814e-02 1.0245278843980541e+00 0.0000000000000000e+00  -1.8250221594943911e-02 1.0242229804011178e+00 0.0000000000000000e+00  -1.8746884172751065e-02 1.0238887833445209e+00 0.0000000000000000e+00  -1.9186633240736248e-02 1.0235811027253088e+00 0.0000000000000000e+00  -1.9675263341704639e-02 1.0232256730413156e+00 0.0000000000000000e+00  -2.0107796803597561e-02 1.0228986063017471e+00 0.0000000000000000e+00  -2.0564551547711571e-02 1.0225399447143004e+00 0.0000000000000000e+00  -2.1009950538556695e-02 1.0221763933383046e+00 0.0000000000000000e+00  -2.1424037386632122e-02 1.0218255766140292e+00 0.0000000000000000e+00  -2.1873011192566863e-02 1.0214304623492425e+00 0.0000000000000000e+00  -2.2264083591177326e-02 1.0210731456643229e+00 0.0000000000000000e+00  -2.2693859168474082e-02 1.0206655058798633e+00 0.0000000000000000e+00  -2.3083442316773121e-02 1.0202816572796272e+00 0.0000000000000000e+00  -2.3474503690753167e-02 1.0198817975938053e+00 0.0000000000000000e+00  -2.3872897086892816e-02 1.0194584819829047e+00 0.0000000000000000e+00  -2.4227870932868965e-02 1.0190668356964998e+00 0.0000000000000000e+00  -2.4617772291087820e-02 1.0186198434608795e+00 0.0000000000000000e+00  -2.4956808935237024e-02 1.0182158422114218e+00 0.0000000000000000e+00  -2.5319030893744626e-02 1.0177672796596668e+00 0.0000000000000000e+00  -2.5659433958510346e-02 1.0173285573831745e+00 0.0000000000000000e+00  -2.5981615548494555e-02 1.0168967529324382e+00 0.0000000000000000e+00  -2.6321441201358490e-02 1.0164223569994879e+00 0.0000000000000000e+00  -2.6615844034690684e-02 1.0159942809334319e+00 0.0000000000000000e+00  -2.6937751582898954e-02 1.0155063887511020e+00 0.0000000000000000e+00  -2.7220951754356230e-02 1.0150584042114854e+00 0.0000000000000000e+00  -2.7509848978102980e-02 1.0145815287876776e+00 0.0000000000000000e+00  -2.7792460737054426e-02 1.0140935606492314e+00 0.0000000000000000e+00  -2.8045952118856923e-02 1.0136358711563622e+00 0.0000000000000000e+00  -2.8318060124964389e-02 1.0131210812051352e+00 0.0000000000000000e+00  -2.8550158328243074e-02 1.0126604808713797e+00 0.0000000000000000e+00  -2.8797958373569590e-02 1.0121441119130845e+00 0.0000000000000000e+00  -2.9020962022676875e-02 1.0116548376452850e+00 0.0000000000000000e+00  -2.9234780794412035e-02 1.0111607928528530e+00 0.0000000000000000e+00  -2.9450814973026259e-02 1.0106331682767569e+00 0.0000000000000000e+00  -2.9636035092397938e-02 1.0101545226193791e+00 0.0000000000000000e+00  -2.9834029967842957e-02 1.0096115008162698e+00 0.0000000000000000e+00  -3.0001669363837028e-02 1.0091220133638537e+00 0.0000000000000000e+00  -3.0172280367362879e-02 1.0085904945041235e+00 0.0000000000000000e+00  -3.0329464705921121e-02 1.0080650241173177e+00 0.0000000000000000e+00  -3.0469455749447632e-02 1.0075618598707723e+00 0.0000000000000000e+00  -3.0612203883642490e-02 1.0070064967396473e+00 0.0000000000000000e+00  -3.0729226663980286e-02 1.0065112812137327e+00 0.0000000000000000e+00  -3.0849680784745200e-02 1.0059531297720798e+00 0.0000000000000000e+00  -3.0950149740195304e-02 1.0054383733393688e+00 0.0000000000000000e+00  -3.1043694134019157e-02 1.0049046134329738e+00 0.0000000000000000e+00  -3.1129237907973742e-02 1.0043520661372904e+00 0.0000000000000000e+00  -3.1197759414119411e-02 1.0038447393911840e+00 0.0000000000000000e+00  -3.1263419100545732e-02 1.0032745428673022e+00 0.0000000000000000e+00  -3.1311840328518400e-02 1.0027668475808897e+00 0.0000000000000000e+00  -3.1354336638064230e-02 1.0022070642336947e+00 0.0000000000000000e+00  -3.1384368795796799e-02 1.0016712035839082e+00 0.0000000000000000e+00  -3.1403769063253831e-02 1.0011449836137540e+00 0.0000000000000000e+00  -3.1413516383055708e-02 1.0005778905123333e+00 0.0000000000000000e+00  -3.1412450971120422e-02 1.0000707723629931e+00 0.0000000000000000e+00  -3.1400189745946862e-02 9.9949909322246955e-01 0.0000000000000000e+00  -3.1379055125588681e-02 9.9898296678092791e-01 0.0000000000000000e+00  -3.1346148007666885e-02 9.9843489464880386e-01 0.0000000000000000e+00  -3.1302377899068867e-02 9.9788607431058274e-01 0.0000000000000000e+00  -3.1251625433153268e-02 9.9737284162221396e-01 0.0000000000000000e+00  -3.1184297994552253e-02 9.9680443446060329e-01 0.0000000000000000e+00  -3.1114945691687452e-02 9.9630157416553888e-01 0.0000000000000000e+00  -3.1026850934401915e-02 9.9574167405639658e-01 0.0000000000000000e+00  -3.0934648395160084e-02 9.9522137366349916e-01 0.0000000000000000e+00  -3.0831312427790768e-02 9.9469576482734312e-01 0.0000000000000000e+00  -3.0712064363635515e-02 9.9414553398311212e-01 0.0000000000000000e+00  -3.0594679109176789e-02 9.9364916814523996e-01 0.0000000000000000e+00  -3.0451880641060105e-02 9.9309265859504436e-01 0.0000000000000000e+00  -3.0314922671315005e-02 9.9259805037741400e-01 0.0000000000000000e+00  -3.0155860583002046e-02 9.9206260159897541e-01 0.0000000000000000e+00  -2.9990998364063149e-02 9.9154413904784411e-01 0.0000000000000000e+00  -2.9823079018846115e-02 9.9104796851571753e-01 0.0000000000000000e+00  -2.9629443928428111e-02 9.9050952626301814e-01 0.0000000000000000e+00  -2.9448234451539306e-02 9.9003358679920428e-01 0.0000000000000000e+00  -2.9234325406862532e-02 9.8950166244338078e-01 0.0000000000000000e+00  -2.9029851403337359e-02 9.8901950349137080e-01 0.0000000000000000e+00  -2.8807080957101803e-02 9.8851976