<?xml version="1.0"?>
<VTKFile type="UnstructuredGrid"  version="0.1"  >
<UnstructuredGrid>
<Piece  NumberOfPoints="4290" NumberOfCells="6796">
<Points>
<DataArray  type="Float64"  NumberOfComponents="3"  format="ascii">0 0.01 0  10 0.01 0  0 1.016904071333261 0  10 1.016904071333261 0  0.007129524987038337 0.009997491741717768 0  0.01258064459049757 0.00999219056738478 0  0.01872173241756402 0.009982708334120727 0  0.02429919625640796 0.009970876572043954 0  0.03017238705920286 0.009955108531615313 0  0.03612352734296466 0.0099356743715591 0  0.04164979236492252 0.009914517792428084 0  0.04780928449023854 0.009887415768096998 0  0.05327287671237849 0.009860276931383746 0  0.0593436395885565 0.009826715421083503 0  0.06505608699933001 0.009791870631895848 0  0.07077243060783153 0.009753845329312128 0  0.07684085351634186 0.009710036052663748 0  0.08230528612367993 0.009667566921662384 0  0.08846525752759338 0.009616276826848907 0  0.09398926586603956 0.0095672187064786 0  0.09994377871281757 0.009511110804477986 0  0.10581288515308 0.009452550633355501 0  0.1113930001121819 0.009393893683773193 0  0.1175326299024069 0.009326020378011352 0  0.122983161250664 0.009262856809916281 0  0.1290978349347763 0.009188765415777931 0  0.1347300222736412 0.00911751981665075 0  0.1405327472005438 0.009041131768776852 0  0.1465421455697866 0.008958856277281909 0  0.1520341809431761 0.008880870879718691 0  0.1581991754706344 0.00879018143976357 0  0.1636834803794234 0.008706732874359017 0  0.1697073563005918 0.008612096527554045 0  0.1754901396361989 0.008518345936558386 0  0.1811391035120075 0.008424050210098115 0  0.1872444279222087 0.00831915423323064 0  0.1926961446341008 0.008222899998379215 0  0.198841090009393 0.008111516418624823 0  0.2044064770158165 0.008008028244452866 0  0.2102948627703611 0.007895869216798803 0  0.2162299794791283 0.007780085801116003 0  0.2217647046821167 0.007669675498109103 0  0.2279204403470532 0.007544154739747676 0  0.2333791472114919 0.007430485124751003 0  0.2394590817234977 0.0073013084386626 0  0.245152498789355 0.007177928079207972 0  0.2508861115607116 0.007051356111670669 0  0.2569419868439766 0.006915186417023598 0  0.2624099649457279 0.006790084113692359 0  0.2685711825796066 0.006646722567663751 0  0.274083748205357 0.006516341894728842 0  0.2800541704182985 0.00637292855786236 0  0.2859022845836161 0.006230279166502627 0  0.291495955429921 0.006091868246150131 0  0.2976275706217687 0.005937986548763313 0  0.3030757324287757 0.005799406374294222 0  0.3091980118239236 0.005641654227187252 0  0.3148109405089491 0.005495191514879527 0  0.3206341933715942 0.005341435282378838 0  0.3266248575896781 0.005181393525330103 0  0.3321252080346692 0.005032833254881577 0  0.3382880718234609 0.004864596209960478 0  0.3437628463580178 0.004713611578807419 0  0.3498021006600692 0.004545443593512952 0  0.3555594631656461 0.004383601001460968 0  0.3612291099056053 0.004222822711549606 0  0.3673210805066339 0.004048576418709386 0  0.3727746135437823 0.003891330909934085 0  0.3789246700786391 0.003712634483246944 0  0.3844721023230384 0.00355025746928806 0  0.3903845048135511 0.003376011435332509 0  0.3962935688476314 0.003200699755406988 0  0.4018430601204535 0.00303505085978487 0  0.4079921977692303 0.002850427660455144 0  0.4134449905916002 0.002685819499171436 0  0.4195385366679084 0.002500937932218923 0  0.425204482428441 0.002328206591247292 0  0.4309651825948974 0.00215183074136113 0  0.4370014133195289 0.001966263547608745 0  0.4424769325836848 0.00179732019881714 0  0.4486395183564056 0.001606544730410899 0  0.4541373275735043 0.001435838569361521 0  0.4601308451156257 0.001249254088784412 0  0.4659488863550298 0.001067707976620331 0  0.471564807260988 0.0008921302908496037 0  0.4776843759254726 0.0007004920228137959 0  0.4831317484445766 0.0005296836585198918 0  0.4892643513384632 0.0003372062279158936 0  0.4948528283485032 0.000161696161435303 0  0.5007056813361916 -2.216943068070812e-05 0  0.5066699093509902 -0.000209526046556915 0  0.5121845298566023 -0.0003826949545447442 0  0.5183439831944545 -0.0005759742926309219 0  0.5238088617282698 -0.0007472800272428554 0  0.5298681543527348 -0.0009369594486414562 0  0.5355929349139432 -0.001115856450691032 0  0.5412927239341832 -0.001293613669039852 0  0.5473668732672543 -0.001482588207084091 0  0.5528259073001393 -0.001651967505962102 0  0.5589819336317072 -0.001842386787779294 0  0.5645100189486582 -0.002012797049529044 0  0.5704524332663232 -0.002195301346534757 0  0.5763298911552834 -0.002375058665203144 0  0.5819006708717119 -0.002544689651648297 0  0.5880413281562127 -0.002730768313747055 0  0.5934904284812221 -0.002895042191696308 0  0.5995995320960693 -0.003078202338538874 0  0.605236779888003 -0.003246210954182579 0  0.6110299855290301 -0.003417806240976177 0  0.6170432999212266 -0.00359472323302265 0  0.6225307972792151 -0.00375505261922207 0  0.6286944373476531 -0.003933803567825084 0  0.6341794289295242 -0.004091634709336539 0  0.6401977648984302 -0.004263413669385436 0  0.6459846030577213 -0.004427148756161272 0  0.6516277670629291 -0.004585409549508515 0  0.6577342305863492 -0.004755038487876419 0  0.6631843111407589 -0.004904958327357115 0  0.6693271588517591 -0.005072208653571043 0  0.6748942591145469 -0.005222152905474348 0  0.6807781354428797 -0.005378892074409919 0  0.6867158102497221 -0.005535201343768038 0  0.6922478556369909 -0.005679100421160843 0  0.6984036264198542 -0.005837205328254034 0  0.7038624132928571 -0.005975584427524931 0  0.7099402809449575 -0.006127588021236129 0  0.7156361945945205 -0.006268012368771779 0  0.7213667017809595 -0.006407263887957157 0  0.7274241898103784 -0.006552202568912044 0  0.7328913375361901 -0.006680980644346233 0  0.7390522654079078 -0.006823736587757829 0  0.7445663161830813 -0.006949337256267011 0  0.7505345306161221 -0.007082931996795786 0  0.7563856967966242 -0.007211490056377221 0  0.7619775509571868 -0.007332073958440476 0  0.7681106054434813 -0.007461725199742056 0  0.7735594228940573 -0.007574589702563127 0  0.7796809699364847 -0.007698739982391196 0  0.7852974086111042 -0.007810142587226769 0  0.7911178568436495 -0.007923025648348906 0  0.797112403703894 -0.008036515862006795 0  0.8026119630288198 -0.008138129173272899 0  0.8087760180262171 -0.008249131188213875 0  0.814253500572072 -0.008345174877796967 0  0.8202905515677629 -0.008448166667805387 0  0.8260544286221699 -0.008543663134562481 0  0.831720415905675 -0.008634807324656511 0  0.8378167080097026 -0.008729817306667463 0  0.8432709709919499 -0.008812108559864256 0  0.8494209576248264 -0.008901791974276371 0  0.8549745826348545 -0.008979924427376591 0  0.8608814329347291 -0.009060026011188804 0  0.8667998142885592 -0.009137155111096256 0  0.8723460990452367 -0.009206568509458774 0  0.8784989383774584 -0.009280301817794542 0  0.8839552890388401 -0.009342788637451834 0  0.8900456692707091 -0.009409293585850673 0  0.8957233874467343 -0.009468190513990782 0  0.9014754209053449 -0.009524786393944277 0  0.9075213579987256 -0.009580921173179099 0  0.9129954731058688 -0.009628765913494807 0  0.9191593188847452 -0.009679229788646495 0  0.9246655330424429 -0.009721240864333262 0  0.9306503084472221 -0.009763603884533442 0  0.9364847200361547 -0.009801580348484516 0  0.9420914259676206 -0.009834972127394636 0  0.948219177636862 -0.009867976960504428 0  0.9536688877131657 -0.009894257783109666 0  0.9597979104438458 -0.009920349306153329 0  0.9654020314719589 -0.009940987600901847 0  0.9712398170272581 -0.009959209624459757 0  0.9772219132298864 -0.009974407121723252 0  0.9827297975109929 -0.009985285083248089 0  0.9888934840407251 -0.009993913310034224 0  0.9943667421923366 -0.009998434045983932 0  1.000414962337846 -0.009999991502249178 0  1.00616395254491 -0.009998125110441144 0  1.011844857354635 -0.009993077234903055 0  1.017933801412069 -0.009984132829796667 0  1.023390946643176 -0.00997301205183276 0  1.029544679732296 -0.009956955598792184 0  1.035089558108845 -0.009939300412459717 0  1.041010936359372 -0.009917116481575694 0  1.04691554237944 -0.00989157814857561 0  1.052471258615448 -0.009864440751261633 0  1.05862104751389 -0.009830897850136421 0  1.064075481579663 -0.009798076706746352 0  1.070173358231585 -0.009757978136698224 0  1.075837941143087 -0.00971752009646258 0  1.081604377355612 -0.009673173917302162 0  1.087640686528322 -0.009623351755525641 0  1.093119387704205 -0.009575135453199036 0  1.099284093826516 -0.009517491101966447 0  1.104783734376909 -0.009463052176492596 0  1.110779897618174 -0.009400480030121557 0  1.116599992234411 -0.00933655469875222 0  1.122217899723542 -0.009271889359757672 0  1.128339818747432 -0.009198135031144493 0  1.133789446190431 -0.00912961705214143 0  1.139923317158062 -0.009049295973540348 0  1.145515844317945 -0.008973134373133167 0  1.151367773813766 -0.008890475161473248 0  1.157336906671575 -0.008803064948780913 0  1.16285160438384 -0.008719557366803981 0  1.16901331600552 -0.008623157866544266 0  1.174481522907442 -0.00853490108265173 0  1.180539122189597 -0.008434191931863186 0  1.186271617394136 -0.008336073959344166 0  1.191966996821913 -0.008235914041393521 0  1.198046448076202 -0.008126091334838595 0  1.203505695906331 -0.008024945109277802 0  1.209661806077474 -0.007908057515838151 0  1.21519584913737 -0.007800455577732041 0  1.221132109188887 -0.00768241304184519 0  1.227019087412133 -0.007562711583992629 0  1.232585135446325 -0.007447155722966398 0  1.238729389023077 -0.007316953404904543 0  1.244180486899644 -0.007199156086382225 0  1.250286093435722 -0.007064709646262071 0  1.255932842016573 -0.006938052500145445 0  1.261716857103797 -0.006806053534187844 0  1.26773845151126 -0.006666245775332091 0  1.273222687278595 -0.006536836953056475 0  1.279386853652711 -0.00638906998029936 0  1.284876650734994 -0.006255450389977176 0  1.290887326898431 -0.00610702037198264 0  1.296685536664392 -0.00596177282270944 0  1.30231949087952 -0.005818744638503708 0  1.308431215520824
[...]
<PointData  Vectors="Velocity"> 
<DataArray  type="Float64"  Name="Velocity"  NumberOfComponents="3" format="ascii">-1.3944922082784177e-10 9.7039118677897074e-01 0.0000000000000000e+00  -1.3944922082784177e-10 9.7039118677897074e-01 0.0000000000000000e+00  1.3157724431761613e-05 -2.8955274092748007e-02 0.0000000000000000e+00  1.3157724431761613e-05 -2.8955274092748007e-02 0.0000000000000000e+00  6.8276937264598184e-04 9.7039837325291034e-01 0.0000000000000000e+00  1.2046099755930381e-03 9.7041356190797368e-01 0.0000000000000000e+00  1.7921088238219863e-03 9.7044073060039804e-01 0.0000000000000000e+00  2.3251659674740411e-03 9.7047463240340859e-01 0.0000000000000000e+00  2.8857804099563693e-03 9.7051981479176730e-01 0.0000000000000000e+00  3.4529207914196229e-03 9.7057550524310687e-01 0.0000000000000000e+00  3.9785890411371538e-03 9.7063613546958794e-01 0.0000000000000000e+00  4.5631958161241083e-03 9.7071380995714951e-01 0.0000000000000000e+00  5.0804550691491441e-03 9.7079159647467850e-01 0.0000000000000000e+00  5.6535890474149683e-03 9.7088780113427453e-01 0.0000000000000000e+00  6.1911839146240079e-03 9.7098769529374263e-01 0.0000000000000000e+00  6.7273225136614909e-03 9.7109671997973079e-01 0.0000000000000000e+00  7.2943106676065655e-03 9.7122234431469356e-01 0.0000000000000000e+00  7.8027982654917680e-03 9.7134414213672537e-01 0.0000000000000000e+00  8.3734814831520361e-03 9.7149125981825257e-01 0.0000000000000000e+00  8.8828125432715288e-03 9.7163199780308729e-01 0.0000000000000000e+00  9.4290914031852045e-03 9.7179298653217183e-01 0.0000000000000000e+00  9.9645790789407735e-03 9.7196104194732180e-01 0.0000000000000000e+00  1.0470824137084578e-02 9.7212940664518277e-01 0.0000000000000000e+00  1.1024416331491387e-02 9.7232426408406791e-01 0.0000000000000000e+00  1.1512728189175661e-02 9.7250563745772878e-01 0.0000000000000000e+00  1.2056846599552530e-02 9.7271843644730693e-01 0.0000000000000000e+00  1.2554419680648372e-02 9.7292310935784543e-01 0.0000000000000000e+00  1.3063279406555620e-02 9.7314260649633322e-01 0.0000000000000000e+00  1.3586052217846645e-02 9.7337907986901051e-01 0.0000000000000000e+00  1.4059924495245266e-02 9.7360327989574158e-01 0.0000000000000000e+00  1.4587262819076893e-02 9.7386407267461650e-01 0.0000000000000000e+00  1.5052141527422796e-02 9.7410410934298430e-01 0.0000000000000000e+00  1.5558004064763277e-02 9.7437640356635646e-01 0.0000000000000000e+00  1.6038781334506206e-02 9.7464623024141350e-01 0.0000000000000000e+00  1.6503709346236163e-02 9.7491770734451433e-01 0.0000000000000000e+00  1.7000786729243569e-02 9.7521979773074019e-01 0.0000000000000000e+00  1.7439760200620762e-02 9.7549708870139018e-01 0.0000000000000000e+00  1.7928861587253025e-02 9.7581807129121034e-01 0.0000000000000000e+00  1.8366489068606467e-02 9.7611640348048800e-01 0.0000000000000000e+00  1.8823833642300621e-02 9.7643984222900093e-01 0.0000000000000000e+00  1.9278750820490447e-02 9.7677385352504709e-01 0.0000000000000000e+00  1.9697358969789712e-02 9.7709248013450978e-01 0.0000000000000000e+00  2.0156414461681520e-02 9.7745484946618921e-01 0.0000000000000000e+00  2.0557613786581302e-02 9.7778313031231856e-01 0.0000000000000000e+00  2.0997819370293349e-02 9.7815634056975220e-01 0.0000000000000000e+00  2.1403552544649609e-02 9.7851294888630880e-01 0.0000000000000000e+00  2.1805671652563290e-02 9.7887892849051561e-01 0.0000000000000000e+00  2.2223191556753390e-02 9.7927282470766741e-01 0.0000000000000000e+00  2.2593699172200166e-02 9.7963485742228773e-01 0.0000000000000000e+00  2.3003671891327716e-02 9.8004990993928842e-01 0.0000000000000000e+00  2.3363616601862165e-02 9.8042754710108371e-01 0.0000000000000000e+00  2.3746009947649131e-02 9.8084311404867408e-01 0.0000000000000000e+00  2.4112934276808089e-02 9.8125665719831667e-01 0.0000000000000000e+00  2.4456704574233212e-02 9.8165809536992243e-01 0.0000000000000000e+00  2.4825329599454563e-02 9.8210461364503832e-01 0.0000000000000000e+00  2.5145552761954265e-02 9.8250692010577811e-01 0.0000000000000000e+00  2.5497061580440145e-02 9.8296510332936204e-01 0.0000000000000000e+00  2.5811461482428064e-02 9.8339070653852190e-01 0.0000000000000000e+00  2.6129577122111662e-02 9.8383772021437588e-01 0.0000000000000000e+00  2.6448151391942468e-02 9.8430324288903226e-01 0.0000000000000000e+00  2.6732788513081088e-02 9.8473558472278178e-01 0.0000000000000000e+00  2.7042654849499123e-02 9.8522544190725869e-01 0.0000000000000000e+00  2.7309799160328250e-02 9.8566529262637759e-01 0.0000000000000000e+00  2.7595510242418689e-02 9.8615545478871558e-01 0.0000000000000000e+00  2.7859020142472265e-02 9.8662743343950865e-01 0.0000000000000000e+00  2.8109959739367640e-02 9.8709655503077709e-01 0.0000000000000000e+00  2.8370032392953857e-02 9.8760525025448365e-01 0.0000000000000000e+00  2.8594361678003707e-02 9.8806455997649045e-01 0.0000000000000000e+00  2.8837623346235047e-02 9.8858681424143391e-01 0.0000000000000000e+00  2.9048129767291282e-02 9.8906163848019257e-01 0.0000000000000000e+00  2.9263086008869336e-02 9.8957144948569864e-01 0.0000000000000000e+00  2.9468144033462828e-02 9.9008467058024574e-01 0.0000000000000000e+00  2.9651749316871014e-02 9.9056987564017107e-01 0.0000000000000000e+00  2.9844957890563229e-02 9.9111096898263273e-01 0.0000000000000000e+00  3.0007216728098422e-02 9.9159367800273990e-01 0.0000000000000000e+00  3.0178378920764418e-02 9.9213614863509947e-01 0.0000000000000000e+00  3.0327838460989454e-02 9.9264326724600394e-01 0.0000000000000000e+00  3.0470159265031740e-02 9.9316138321638592e-01 0.0000000000000000e+00  3.0608793352664938e-02 9.9370682334072036e-01 0.0000000000000000e+00  3.0725204552014815e-02 9.9420368996641439e-01 0.0000000000000000e+00  3.0845531735936689e-02 9.9476509947959890e-01 0.0000000000000000e+00  3.0943270761307914e-02 9.9526774980710309e-01 0.0000000000000000e+00  3.1039446724815664e-02 9.9581747762118433e-01 0.0000000000000000e+00  3.1122411689704848e-02 9.9635268623281403e-01 0.0000000000000000e+00  3.1192732509339172e-02 9.9687060706346653e-01 0.0000000000000000e+00  3.1258407784828066e-02 9.9743624715656076e-01 0.0000000000000000e+00  3.1307219475750520e-02 9.9794070775149646e-01 0.0000000000000000e+00  3.1351258443314066e-02 9.9850950875889533e-01 0.0000000000000000e+00  3.1381297136852393e-02 9.9902848674029288e-01 0.0000000000000000e+00  3.1402414414865243e-02 9.9957249653926983e-01 0.0000000000000000e+00  3.1413021584674301e-02 1.0001271771345239e+00 0.0000000000000000e+00  3.1413005032049315e-02 1.0006401625482810e+00 0.0000000000000000e+00  3.1401813078807454e-02 1.0012130729421131e+00 0.0000000000000000e+00  3.1382002910784364e-02 1.0017211595047195e+00 0.0000000000000000e+00  3.1349159710925015e-02 1.0022840802281232e+00 0.0000000000000000e+00  3.1307620996961542e-02 1.0028153293978896e+00 0.0000000000000000e+00  3.1256110566765409e-02 1.0033435104306658e+00 0.0000000000000000e+00  3.1190069772753723e-02 1.0039053671118263e+00 0.0000000000000000e+00  3.1120909199956352e-02 1.0044092652222092e+00 0.0000000000000000e+00  3.1031786669285317e-02 1.0049761004581428e+00 0.0000000000000000e+00  3.0941711197197741e-02 1.0054836821561774e+00 0.0000000000000000e+00  3.0834300994260610e-02 1.0060276092870457e+00 0.0000000000000000e+00  3.0717298429245293e-02 1.0065636756765111e+00 0.0000000000000000e+00  3.0596539843675198e-02 1.0070698428889764e+00 0.0000000000000000e+00  3.0452332909842821e-02 1.0076254227719985e+00 0.0000000000000000e+00  3.0314654900303200e-02 1.0081161896373609e+00 0.0000000000000000e+00  3.0149475364181361e-02 1.0086637003055932e+00 0.0000000000000000e+00  2.9986941066525382e-02 1.0091662189413755e+00 0.0000000000000000e+00  2.9809838755030391e-02 1.0096797613049797e+00 0.0000000000000000e+00  2.9615255996326521e-02 1.0102095427600180e+00 0.0000000000000000e+00  2.9428178113568137e-02 1.0106899264388052e+00 0.0000000000000000e+00  2.9207281469768760e-02 1.0112258155258407e+00 0.0000000000000000e+00  2.9001183043145383e-02 1.0116992593342493e+00 0.0000000000000000e+00  2.8764783819478713e-02 1.0122148305944163e+00 0.0000000000000000e+00  2.8527420262852224e-02 1.0127065398863626e+00 0.0000000000000000e+00  2.8286521345758261e-02 1.0131820718238025e+00 0.0000000000000000e+00  2.8015428671319429e-02 1.0136920474185027e+00 0.0000000000000000e+00  2.7764410380936175e-02 1.0141430143652359e+00 0.0000000000000000e+00  2.7471301621656390e-02 1.0146463861374289e+00 0.0000000000000000e+00  2.7196435781231515e-02 1.0150979178738668e+00 0.0000000000000000e+00  2.6896478075120772e-02 1.0155701592250004e+00 0.0000000000000000e+00  2.6584021645517892e-02 1.0160413575243541e+00 0.0000000000000000e+00  2.6284182161631076e-02 1.0164753684955714e+00 0.0000000000000000e+00  2.5940761098372515e-02 1.0169524731486961e+00 0.0000000000000000e+00  2.5627664621566973e-02 1.0173702660933177e+00 0.0000000000000000e+00  2.5269725253344411e-02 1.0178294224893709e+00 0.0000000000000000e+00  2.4925474432516144e-02 1.0182538151238758e+00 0.0000000000000000e+00  2.4570645883097486e-02 1.0186748666995125e+00 0.0000000000000000e+00  2.4186405255419530e-02 1.0191133295098920e+00 0.0000000000000000e+00  2.3831670528401811e-02 1.0195030865783057e+00 0.0000000000000000e+00  2.3422991170418815e-02 1.0199353527162687e+00 0.0000000000000000e+00  2.3049328501546704e-02 1.0203158496778755e+00 0.0000000000000000e+00  2.2636613342217452e-02 1.0207207451755762e+00 0.0000000000000000e+00  2.2223788016647674e-02 1.0211105516201324e+00 0.0000000000000000e+00  2.1821794829685309e-02 1.0214763377596112e+00 0.0000000000000000e+00  2.1372652419167599e-02 1.0218698002263895e+00 0.0000000000000000e+00  2.0966523302706454e-02 1.0222124625306055e+00 0.0000000000000000e+00  2.0502433246141767e-02 1.0225895437603882e+00 0.0000000000000000e+00  2.0069505222707635e-02 1.0229280455956995e+00 0.0000000000000000e+00  1.9613809280521085e-02 1.0232711798249232e+00 0.0000000000000000e+00  1.9137143910055568e-02 1.0236162952025418e+00 0.0000000000000000e+00  1.8693441647111550e-02 1.0239254087977065e+00 0.0000000000000000e+00  1.8189024263370435e-02 1.0242632092287154e+00 0.0000000000000000e+00  1.7734643031495578e-02 1.0245555944486384e+00 0.0000000000000000e+00  1.7227312032491275e-02 1.0248692399736721e+00 0.0000000000000000e+00  1.6736721002782118e-02 1.0251601599270854e+00 0.0000000000000000e+00  1.6248703621297822e-02 1.0254379123634099e+00 0.0000000000000000e+00  1.5717438422618666e-02 1.0257275394636709e+00 0.0000000000000000e+00  1.5236852981086440e-02 1.0259784722370751e+00 0.0000000000000000e+00  1.4689186944772187e-02 1.0262520284158405e+00 0.0000000000000000e+00  1.4189536657209680e-02 1.0264904217420032e+00 0.0000000000000000e+00  1.3652993265237107e-02 1.0267348907885934e+00 0.0000000000000000e+00  1.3110306599721639e-02 1.0269703522828155e+00 0.0000000000000000e+00  1.2597287671457385e-02 1.0271823133550846e+00 0.0000000000000000e+00  1.2023329858514870e-02 1.0274075226177231e+00 0.0000000000000000e+00  1.1510267076570393e-02 1.0275984265772991e+00 0.0000000000000000e+00  1.0933265958651586e-02 1.0278016518590778e+00 0.0000000000000000e+00  1.0391449728684946e-02 1.0279816681739735e+00 0.0000000000000000e+00  9.8388862413995026e-03 1.0281546868591216e+00 0.0000000000000000e+00  9.2543353983210834e-03 1.0283263297410492e+00 0.0000000000000000e+00  8.7219396298956475e-03 1.0284726506014152e+00 0.0000000000000000e+00  8.1191193170910472e-03 1.0286270083099747e+00 0.0000000000000000e+00  7.5778105463003712e-03 1.0287555318896786e+00 0.0000000000000000e+00  6.9866669354319315e-03 1.0288851512278072e+00 0.0000000000000000e+00  6.4077886492166234e-03 1.0290013650788419e+00 0.0000000000000000e+00  5.8492942253025211e-03 1.0291035620463562e+00 0.0000000000000000e+00  5.2366474918686817e-03 1.0292045866379753e+00 0.0000000000000000e+00  4.6900101258288314e-03 1.0292850380773539e+00 0.0000000000000000e+00  4.0734525083435703e-03 1.0293649171800034e+00 0.0000000000000000e+00  3.5082553177018323e-03 1.0294281065820181e+00 0.0000000000000000e+00  2.9182337266194713e-03 1.0294839017525794e+00 0.0000000000000000e+00  2.3125203337756887e-03 1.0295304386223088e+00 0.0000000000000000e+00  1.7540316368157879e-03 1.0295637499714281e+00 0.0000000000000000e+00  1.1283768326342863e-03 1.0295901729716106e+00 0.0000000000000000e+00  5.7241018169660132e-04 1.0296040175332257e+00 0.0000000000000000e+00  -4.2166928526629238e-05 1.0296087872260438e+00 0.0000000000000000e+00  -6.2632711326121148e-04 1.0296030714131799e+00 0.0000000000000000e+00  -1.2033515648237117e-03 1.0295876125332475e+00 0.0000000000000000e+00  -1.8213522082691992e-03 1.0295602213765593e+00 0.0000000000000000e+00  -2.3746186143043316e-03 1.0295261665762416e+00 0.0000000000000000e+00  -2.9975876307226346e-03 1.0294769997939093e+00 0.0000000000000000e+00  -3.5578813869438582e-03 1.0294229406388102e+00 0.0000000000000000e+00  -4.1549172866718357e-03 1.0293550194310899e+00 0.0000000000000000e+00  -4.7487043941572826e-03 1.0292768346021117e+00 0.0000000000000000e+00  -5.3057859764496923e-03 1.0291937621408380e+00 0.0000000000000000e+00  -5.9203783175863969e-03 1.0290910920020819e+00 0.0000000000000000e+00  -6.4634748037762828e-03 1.0289906426553102e+00 0.0000000000000000e+00  -7.0681881898025300e-03 1.0288679366757356e+00 0.0000000000000000e+00  -7.6274109467132289e-03 1.0287441483341104e+00 0.0000000000000000e+00  -8.1939923904822722e-03 1.0286084834232636e+00 0.0000000000000000e+00  -8.7839575590341369e-03 1.0284560915001344e+00 0.0000000000000000e+00  -9.3164614760605034e-03 1.0283086371599470e+00 0.0000000000000000e+00  -9.9120523535386803e-03 1.0281323826997470e+00 0.0000000000000000e+00  -1.0439992622492646e-02 1.0279659616197070e+00 0.0000000000000000e+00  -1.1011739510241687e-02 1.0277747164883493e+00 0.0000000000000000e+00  -1.1562650011464190e-02 1.0275793791974202e+00 0.0000000000000000e+00  -1.2090454076058337e-02 1.0273818250852338e+00 0.0000000000000000e+00  -1.2660961379258207e-02 1.0271565582509987e+00 0.0000000000000000e+00  -1.3164563007597880e-02 1.0269473368007909e+00 0.0000000000000000e+00  -1.3726395546490378e-02 1.0267021387027135e+00 0.0000000000000000e+00  -1.4233850584394218e-02 1.0264697019118563e+00 0.0000000000000000e+00  -1.4759760678819305e-02 1.0262175047614477e+00 0.0000000000000000e+00  -1.5290657809131256e-02 1.0259508915539295e+00 0.0000000000000000e+00  -1.5775991734542964e-02 1.0256962586136200e+00 0.0000000000000000e+00  -1.6312219496932255e-02 1.0254024072088435e+00 0.0000000000000000e+00  -1.6782593722661852e-02 1.0251334632162683e+00 0.0000000000000000e+00  -1.7297435266552690e-02 1.0248266749516264e+00 0.0000000000000000e+00  -1.7778449551112355e-02 1.0245278844144656e+00 0.0000000000000000e+00  -1.8250219862878773e-02 1.0242229804162839e+00 0.0000000000000000e+00  -1.8746880033913834e-02 1.0238887834034949e+00 0.0000000000000000e+00  -1.9186634302515548e-02 1.0235811026961010e+00 0.0000000000000000e+00  -1.9675260365067931e-02 1.0232256730685185e+00 0.0000000000000000e+00  -2.0107800099457829e-02 1.0228986062727508e+00 0.0000000000000000e+00  -2.0564543632682078e-02 1.0225399447822636e+00 0.0000000000000000e+00  -2.1009958130404127e-02 1.0221763932869405e+00 0.0000000000000000e+00  -2.1424034624838956e-02 1.0218255766399003e+00 0.0000000000000000e+00  -2.1873012648903092e-02 1.0214304623385932e+00 0.0000000000000000e+00  -2.2264083230206483e-02 1.0210731456623534e+00 0.0000000000000000e+00  -2.2693858100863672e-02 1.0206655058860850e+00 0.0000000000000000e+00  -2.3083443085327685e-02 1.0202816572737221e+00 0.0000000000000000e+00  -2.3474505037675147e-02 1.0198817975701948e+00 0.0000000000000000e+00  -2.3872896791391401e-02 1.0194584819881498e+00 0.0000000000000000e+00  -2.4227871197098138e-02 1.0190668356894019e+00 0.0000000000000000e+00  -2.4617770099233674e-02 1.0186198434955034e+00 0.0000000000000000e+00  -2.4956808685994512e-02 1.0182158422075409e+00 0.0000000000000000e+00  -2.5319029312824658e-02 1.0177672796846877e+00 0.0000000000000000e+00  -2.5659433807274153e-02 1.0173285573862996e+00 0.0000000000000000e+00  -2.5981613828856481e-02 1.0168967529873778e+00 0.0000000000000000e+00  -2.6321435104301381e-02 1.0164223571780411e+00 0.0000000000000000e+00  -2.6615842585167412e-02 1.0159942809806226e+00 0.0000000000000000e+00  -2.6937743935572467e-02 1.0155063889919995e+00 0.0000000000000000e+00  -2.7220949839254317e-02 1.0150584042690047e+00 0.0000000000000000e+00  -2.7509844928240598e-02 1.0145815289098123e+00 0.0000000000000000e+00  -2.7792458506012880e-02 1.0140935607162516e+00 0.0000000000000000e+00  -2.8045947890740667e-02 1.0136358712895963e+00 0.0000000000000000e+00  -2.8318050288343385e-02 1.0131210815296645e+00 0.0000000000000000e+00  -2.8550156259173273e-02 1.0126604809293249e+00 0.0000000000000000e+00  -2.8797957256482168e-02 1.0121441119463688e+00 0.0000000000000000e+00  -2.9020962206772610e-02 1.0116548376344308e+00 0.0000000000000000e+00  -2.9234777944628493e-02 1.0111607929352231e+00 0.0000000000000000e+00  -2.9450813486017448e-02 1.0106331683190806e+00 0.0000000000000000e+00  -2.9636032067099170e-02 1.0101545227085684e+00 0.0000000000000000e+00  -2.9834027177953821e-02 1.0096115008996174e+00 0.0000000000000000e+00  -3.0001662786316111e-02 1.0091220135788277e+00 0.0000000000000000e+00  -3.0172274711786268e-02 1.0085904946910857e+00 0.0000000000000000e+00  -3.0329461994115629e-02 1.0080650242032425e+00 0.0000000000000000e+00  -3.0469453945700744e-02 1.0075618599126361e+00 0.0000000000000000e+00  -3.0612202217207781e-02 1.0070064967778989e+00 0.0000000000000000e+00  -3.0729225375608075e-02 1.0065112812474564e+00 0.0000000000000000e+00  -3.0849677848796466e-02 1.0059531298538809e+00 0.0000000000000000e+00  -3.0950148185729380e-02 1.0054383733643690e+00 0.0000000000000000e+00  -3.1043689987816647e-02 1.0049046135549300e+00 0.0000000000000000e+00  -3.1129234276411889e-02 1.0043520662353076e+00 0.0000000000000000e+00  -3.1197756210700412e-02 1.0038447394484535e+00 0.0000000000000000e+00  -3.1263416534897476e-02 1.0032745429133747e+00 0.0000000000000000e+00  -3.1311838853437413e-02 1.0027668476050100e+00 0.0000000000000000e+00  -3.1354334082146162e-02 1.0022070642667222e+00 0.0000000000000000e+00  -3.1384366568736562e-02 1.0016712036142652e+00 0.0000000000000000e+00  -3.1403764093407394e-02 1.0011449836624002e+00 0.0000000000000000e+00  -3.1413513777203188e-02 1.0005778905580360e+00 0.0000000000000000e+00  -3.1412448147529491e-02 1.0000707724339344e+00 0.0000000000000000e+00  -3.1400187841901350e-02 9.9949909325862840e-01 0.0000000000000000e+00  -3.1379052601442282e-02 9.9898296683760468e-01 0.0000000000000000e+00  -3.1346145734359294e-02 9.9843489465731372e-01 0.0000000000000000e+00  -3.1302376598095066e-02 9.9788607430454446e-01 0.0000000000000000e+00  -3.1251622792631058e-02 9.9737284159720330e-01 0.0000000000000000e+00  -3.1184294102221358e-02 9.9680443449093303e-01 0.0000000000000000e+00  -3.1114942916549655e-02 9.9630157419760335e-01 0.0000000000000000e+00  -3.1026848566271324e-02 9.9574167409173553e-01 0.0000000000000000e+00  -3.0934645260485654e-02 9.9522137369525665e-01 0.0000000000000000e+00  -3.0831309661978210e-02 9.9469576484887479e-01 0.0000000000000000e+00  -3.0712061920501674e-02 9.9414553402231454e-01 0.0000000000000000e+00  -3.0594675819407259e-02 9.9364916816564286e-01 0.0000000000000000e+00  -3.0451876686715923e-02 9.9309265860950446e-01 0.0000000000000000e+00  -3.0314917033271865e-02 9.9259805052737082e-01 0.0000000000000000e+00  -3.0155849714569312e-02 9.9206260190649487e-01 0.0000000000000000e+00  -2.9990997027568283e-02 9.9154413906579209e-01 0.0000000000000000e+00  -2.9823071988503678e-02 9.9104796868571932e-01 0.0000000000000000e+00  -2.9629445778738224e-02 9.9050952607773834e-01 0.0000000000000000e+00  -2.9448235193597187e-02 9.9003358670363628e-01 0.0000000000000000e+00  -2.9234326755265647e-02 9.8950166225563807e-01 0.0000000000000000e+00  -2.9029853492635118e-02 9.8901950327280186e-01 0.0000000000000000e+00  -2.8807081887340654e-02 9.8851976