<?xml version="1.0"?>
<VTKFile type="UnstructuredGrid"  version="0.1"  >
<UnstructuredGrid>
<Piece  NumberOfPoints="4266" NumberOfCells="6748">
<Points>
<DataArray  type="Float64"  NumberOfComponents="3"  format="ascii">0 0.01 0  10 0.01 0  0 1.012129576756052 0  10 1.012129576756052 0  0.007129524987038337 0.009997491741717768 0  0.01258064459049757 0.00999219056738478 0  0.01872173241756402 0.009982708334120727 0  0.02429919625640796 0.009970876572043954 0  0.03017238705920286 0.009955108531615313 0  0.03612352734296466 0.0099356743715591 0  0.04164979236492252 0.009914517792428084 0  0.04780928449023854 0.009887415768096998 0  0.05327287671237849 0.009860276931383746 0  0.0593436395885565 0.009826715421083503 0  0.06505608699933001 0.009791870631895848 0  0.07077243060783153 0.009753845329312128 0  0.07684085351634186 0.009710036052663748 0  0.08230528612367993 0.009667566921662384 0  0.08846525752759338 0.009616276826848907 0  0.09398926586603956 0.0095672187064786 0  0.09994377871281757 0.009511110804477986 0  0.10581288515308 0.009452550633355501 0  0.1113930001121819 0.009393893683773193 0  0.1175326299024069 0.009326020378011352 0  0.122983161250664 0.009262856809916281 0  0.1290978349347763 0.009188765415777931 0  0.1347300222736412 0.00911751981665075 0  0.1405327472005438 0.009041131768776852 0  0.1465421455697866 0.008958856277281909 0  0.1520341809431761 0.008880870879718691 0  0.1581991754706344 0.00879018143976357 0  0.1636834803794234 0.008706732874359017 0  0.1697073563005918 0.008612096527554045 0  0.1754901396361989 0.008518345936558386 0  0.1811391035120075 0.008424050210098115 0  0.1872444279222087 0.00831915423323064 0  0.1926961446341008 0.008222899998379215 0  0.198841090009393 0.008111516418624823 0  0.2044064770158165 0.008008028244452866 0  0.2102948627703611 0.007895869216798803 0  0.2162299794791283 0.007780085801116003 0  0.2217647046821167 0.007669675498109103 0  0.2279204403470532 0.007544154739747676 0  0.2333791472114919 0.007430485124751003 0  0.2394590817234977 0.0073013084386626 0  0.245152498789355 0.007177928079207972 0  0.2508861115607116 0.007051356111670669 0  0.2569419868439766 0.006915186417023598 0  0.2624099649457279 0.006790084113692359 0  0.2685711825796066 0.006646722567663751 0  0.274083748205357 0.006516341894728842 0  0.2800541704182985 0.00637292855786236 0  0.2859022845836161 0.006230279166502627 0  0.291495955429921 0.006091868246150131 0  0.2976275706217687 0.005937986548763313 0  0.3030757324287757 0.005799406374294222 0  0.3091980118239236 0.005641654227187252 0  0.3148109405089491 0.005495191514879527 0  0.3206341933715942 0.005341435282378838 0  0.3266248575896781 0.005181393525330103 0  0.3321252080346692 0.005032833254881577 0  0.3382880718234609 0.004864596209960478 0  0.3437628463580178 0.004713611578807419 0  0.3498021006600692 0.004545443593512952 0  0.3555594631656461 0.004383601001460968 0  0.3612291099056053 0.004222822711549606 0  0.3673210805066339 0.004048576418709386 0  0.3727746135437823 0.003891330909934085 0  0.3789246700786391 0.003712634483246944 0  0.3844721023230384 0.00355025746928806 0  0.3903845048135511 0.003376011435332509 0  0.3962935688476314 0.003200699755406988 0  0.4018430601204535 0.00303505085978487 0  0.4079921977692303 0.002850427660455144 0  0.4134449905916002 0.002685819499171436 0  0.4195385366679084 0.002500937932218923 0  0.425204482428441 0.002328206591247292 0  0.4309651825948974 0.00215183074136113 0  0.4370014133195289 0.001966263547608745 0  0.4424769325836848 0.00179732019881714 0  0.4486395183564056 0.001606544730410899 0  0.4541373275735043 0.001435838569361521 0  0.4601308451156257 0.001249254088784412 0  0.4659488863550298 0.001067707976620331 0  0.471564807260988 0.0008921302908496037 0  0.4776843759254726 0.0007004920228137959 0  0.4831317484445766 0.0005296836585198918 0  0.4892643513384632 0.0003372062279158936 0  0.4948528283485032 0.000161696161435303 0  0.5007056813361916 -2.216943068070812e-05 0  0.5066699093509902 -0.000209526046556915 0  0.5121845298566023 -0.0003826949545447442 0  0.5183439831944545 -0.0005759742926309219 0  0.5238088617282698 -0.0007472800272428554 0  0.5298681543527348 -0.0009369594486414562 0  0.5355929349139432 -0.001115856450691032 0  0.5412927239341832 -0.001293613669039852 0  0.5473668732672543 -0.001482588207084091 0  0.5528259073001393 -0.001651967505962102 0  0.5589819336317072 -0.001842386787779294 0  0.5645100189486582 -0.002012797049529044 0  0.5704524332663232 -0.002195301346534757 0  0.5763298911552834 -0.002375058665203144 0  0.5819006708717119 -0.002544689651648297 0  0.5880413281562127 -0.002730768313747055 0  0.5934904284812221 -0.002895042191696308 0  0.5995995320960693 -0.003078202338538874 0  0.605236779888003 -0.003246210954182579 0  0.6110299855290301 -0.003417806240976177 0  0.6170432999212266 -0.00359472323302265 0  0.6225307972792151 -0.00375505261922207 0  0.6286944373476531 -0.003933803567825084 0  0.6341794289295242 -0.004091634709336539 0  0.6401977648984302 -0.004263413669385436 0  0.6459846030577213 -0.004427148756161272 0  0.6516277670629291 -0.004585409549508515 0  0.6577342305863492 -0.004755038487876419 0  0.6631843111407589 -0.004904958327357115 0  0.6693271588517591 -0.005072208653571043 0  0.6748942591145469 -0.005222152905474348 0  0.6807781354428797 -0.005378892074409919 0  0.6867158102497221 -0.005535201343768038 0  0.6922478556369909 -0.005679100421160843 0  0.6984036264198542 -0.005837205328254034 0  0.7038624132928571 -0.005975584427524931 0  0.7099402809449575 -0.006127588021236129 0  0.7156361945945205 -0.006268012368771779 0  0.7213667017809595 -0.006407263887957157 0  0.7274241898103784 -0.006552202568912044 0  0.7328913375361901 -0.006680980644346233 0  0.7390522654079078 -0.006823736587757829 0  0.7445663161830813 -0.006949337256267011 0  0.7505345306161221 -0.007082931996795786 0  0.7563856967966242 -0.007211490056377221 0  0.7619775509571868 -0.007332073958440476 0  0.7681106054434813 -0.007461725199742056 0  0.7735594228940573 -0.007574589702563127 0  0.7796809699364847 -0.007698739982391196 0  0.7852974086111042 -0.007810142587226769 0  0.7911178568436495 -0.007923025648348906 0  0.797112403703894 -0.008036515862006795 0  0.8026119630288198 -0.008138129173272899 0  0.8087760180262171 -0.008249131188213875 0  0.814253500572072 -0.008345174877796967 0  0.8202905515677629 -0.008448166667805387 0  0.8260544286221699 -0.008543663134562481 0  0.831720415905675 -0.008634807324656511 0  0.8378167080097026 -0.008729817306667463 0  0.8432709709919499 -0.008812108559864256 0  0.8494209576248264 -0.008901791974276371 0  0.8549745826348545 -0.008979924427376591 0  0.8608814329347291 -0.009060026011188804 0  0.8667998142885592 -0.009137155111096256 0  0.8723460990452367 -0.009206568509458774 0  0.8784989383774584 -0.009280301817794542 0  0.8839552890388401 -0.009342788637451834 0  0.8900456692707091 -0.009409293585850673 0  0.8957233874467343 -0.009468190513990782 0  0.9014754209053449 -0.009524786393944277 0  0.9075213579987256 -0.009580921173179099 0  0.9129954731058688 -0.009628765913494807 0  0.9191593188847452 -0.009679229788646495 0  0.9246655330424429 -0.009721240864333262 0  0.9306503084472221 -0.009763603884533442 0  0.9364847200361547 -0.009801580348484516 0  0.9420914259676206 -0.009834972127394636 0  0.948219177636862 -0.009867976960504428 0  0.9536688877131657 -0.009894257783109666 0  0.9597979104438458 -0.009920349306153329 0  0.9654020314719589 -0.009940987600901847 0  0.9712398170272581 -0.009959209624459757 0  0.9772219132298864 -0.009974407121723252 0  0.9827297975109929 -0.009985285083248089 0  0.9888934840407251 -0.009993913310034224 0  0.9943667421923366 -0.009998434045983932 0  1.000414962337846 -0.009999991502249178 0  1.00616395254491 -0.009998125110441144 0  1.011844857354635 -0.009993077234903055 0  1.017933801412069 -0.009984132829796667 0  1.023390946643176 -0.00997301205183276 0  1.029544679732296 -0.009956955598792184 0  1.035089558108845 -0.009939300412459717 0  1.041010936359372 -0.009917116481575694 0  1.04691554237944 -0.00989157814857561 0  1.052471258615448 -0.009864440751261633 0  1.05862104751389 -0.009830897850136421 0  1.064075481579663 -0.009798076706746352 0  1.070173358231585 -0.009757978136698224 0  1.075837941143087 -0.00971752009646258 0  1.081604377355612 -0.009673173917302162 0  1.087640686528322 -0.009623351755525641 0  1.093119387704205 -0.009575135453199036 0  1.099284093826516 -0.009517491101966447 0  1.104783734376909 -0.009463052176492596 0  1.110779897618174 -0.009400480030121557 0  1.116599992234411 -0.00933655469875222 0  1.122217899723542 -0.009271889359757672 0  1.128339818747432 -0.009198135031144493 0  1.133789446190431 -0.00912961705214143 0  1.139923317158062 -0.009049295973540348 0  1.145515844317945 -0.008973134373133167 0  1.151367773813766 -0.008890475161473248 0  1.157336906671575 -0.008803064948780913 0  1.16285160438384 -0.008719557366803981 0  1.16901331600552 -0.008623157866544266 0  1.174481522907442 -0.00853490108265173 0  1.180539122189597 -0.008434191931863186 0  1.186271617394136 -0.008336073959344166 0  1.191966996821913 -0.008235914041393521 0  1.198046448076202 -0.008126091334838595 0  1.203505695906331 -0.008024945109277802 0  1.209661806077474 -0.007908057515838151 0  1.21519584913737 -0.007800455577732041 0  1.221132109188887 -0.00768241304184519 0  1.227019087412133 -0.007562711583992629 0  1.232585135446325 -0.007447155722966398 0  1.238729389023077 -0.007316953404904543 0  1.244180486899644 -0.007199156086382225 0  1.250286093435722 -0.007064709646262071 0  1.255932842016573 -0.006938052500145445 0  1.261716857103797 -0.006806053534187844 0  1.26773845151126 -0.006666245775332091 0  1.273222687278595 -0.006536836953056475 0  1.279386853652711 -0.00638906998029936 0  1.284876650734994 -0.006255450389977176 0  1.290887326898431 -0.00610702037198264 0  1.296685536664392 -0.00596177282270944 0  1.30231949087952 -0.005818744638503708 0  1.308431215520824
[...]
<PointData  Vectors="Velocity"> 
<DataArray  type="Float64"  Name="Velocity"  NumberOfComponents="3" format="ascii">-3.8250253844531369e-10 9.7039118676939573e-01 0.0000000000000000e+00  -3.8250253844531369e-10 9.7039118676939573e-01 0.0000000000000000e+00  6.7341269322431039e-06 -2.4878389792162718e-02 0.0000000000000000e+00  6.7341269322431039e-06 -2.4878389792162718e-02 0.0000000000000000e+00  6.8276959362726915e-04 9.7039837325154898e-01 0.0000000000000000e+00  1.2046096861234891e-03 9.7041356190803352e-01 0.0000000000000000e+00  1.7921086439933575e-03 9.7044073059876290e-01 0.0000000000000000e+00  2.3251657471991217e-03 9.7047463240069431e-01 0.0000000000000000e+00  2.8857804213711616e-03 9.7051981478322491e-01 0.0000000000000000e+00  3.4529207749071753e-03 9.7057550524494374e-01 0.0000000000000000e+00  3.9785893489728804e-03 9.7063613546795569e-01 0.0000000000000000e+00  4.5631956941296174e-03 9.7071380996369794e-01 0.0000000000000000e+00  5.0804552044985407e-03 9.7079159647842994e-01 0.0000000000000000e+00  5.6535890594467120e-03 9.7088780115246176e-01 0.0000000000000000e+00  6.1911842317379532e-03 9.7098769529663276e-01 0.0000000000000000e+00  6.7273230127004200e-03 9.7109672000386504e-01 0.0000000000000000e+00  7.2943109022551335e-03 9.7122234431424825e-01 0.0000000000000000e+00  7.8027987902651403e-03 9.7134414216016363e-01 0.0000000000000000e+00  8.3734814867665423e-03 9.7149125981767115e-01 0.0000000000000000e+00  8.8828122941440376e-03 9.7163199780800014e-01 0.0000000000000000e+00  9.4290913269113302e-03 9.7179298652619028e-01 0.0000000000000000e+00  9.9645787198524623e-03 9.7196104195422317e-01 0.0000000000000000e+00  1.0470823872648279e-02 9.7212940662845115e-01 0.0000000000000000e+00  1.1024416056487065e-02 9.7232426406632178e-01 0.0000000000000000e+00  1.1512727938591047e-02 9.7250563745564855e-01 0.0000000000000000e+00  1.2056844863984490e-02 9.7271843646910539e-01 0.0000000000000000e+00  1.2554418860691800e-02 9.7292310938854321e-01 0.0000000000000000e+00  1.3063277843677360e-02 9.7314260654424400e-01 0.0000000000000000e+00  1.3586051290196592e-02 9.7337907988914363e-01 0.0000000000000000e+00  1.4059923856811351e-02 9.7360327991522022e-01 0.0000000000000000e+00  1.4587262321295029e-02 9.7386407270177788e-01 0.0000000000000000e+00  1.5052142792004449e-02 9.7410410935435832e-01 0.0000000000000000e+00  1.5558003099170194e-02 9.7437640359562772e-01 0.0000000000000000e+00  1.6038780386991979e-02 9.7464623026468389e-01 0.0000000000000000e+00  1.6503708444298593e-02 9.7491770735807548e-01 0.0000000000000000e+00  1.7000786058754776e-02 9.7521979774056322e-01 0.0000000000000000e+00  1.7439759262723144e-02 9.7549708871054652e-01 0.0000000000000000e+00  1.7928861749054219e-02 9.7581807129546894e-01 0.0000000000000000e+00  1.8366487140331976e-02 9.7611640350397166e-01 0.0000000000000000e+00  1.8823834649675030e-02 9.7643984220580948e-01 0.0000000000000000e+00  1.9278750124889193e-02 9.7677385353345758e-01 0.0000000000000000e+00  1.9697356787319958e-02 9.7709248016499040e-01 0.0000000000000000e+00  2.0156413041020702e-02 9.7745484948863914e-01 0.0000000000000000e+00  2.0557610456314237e-02 9.7778313037730324e-01 0.0000000000000000e+00  2.0997817782770396e-02 9.7815634060687251e-01 0.0000000000000000e+00  2.1403550663817147e-02 9.7851294893787844e-01 0.0000000000000000e+00  2.1805669491790674e-02 9.7887892855030112e-01 0.0000000000000000e+00  2.2223187428630466e-02 9.7927282483375133e-01 0.0000000000000000e+00  2.2593696865191311e-02 9.7963485749196999e-01 0.0000000000000000e+00  2.3003663768195622e-02 9.8004991017842469e-01 0.0000000000000000e+00  2.3363615263261923e-02 9.8042754714117097e-01 0.0000000000000000e+00  2.3746003608248037e-02 9.8084311423031378e-01 0.0000000000000000e+00  2.4112932811230958e-02 9.8125665724199174e-01 0.0000000000000000e+00  2.4456703756350288e-02 9.8165809538694104e-01 0.0000000000000000e+00  2.4825327765831573e-02 9.8210461369216040e-01 0.0000000000000000e+00  2.5145551875922229e-02 9.8250692011847229e-01 0.0000000000000000e+00  2.5497061240192298e-02 9.8296510332535614e-01 0.0000000000000000e+00  2.5811461445010418e-02 9.8339070651107963e-01 0.0000000000000000e+00  2.6129577243844741e-02 9.8383772019792348e-01 0.0000000000000000e+00  2.6448148920847566e-02 9.8430324294407967e-01 0.0000000000000000e+00  2.6732786572661805e-02 9.8473558476769341e-01 0.0000000000000000e+00  2.7042653570816474e-02 9.8522544193732875e-01 0.0000000000000000e+00  2.7309796391328585e-02 9.8566529270441217e-01 0.0000000000000000e+00  2.7595497211194218e-02 9.8615545516210779e-01 0.0000000000000000e+00  2.7859014235435835e-02 9.8662743360962168e-01 0.0000000000000000e+00  2.8109948950041441e-02 9.8709655533974416e-01 0.0000000000000000e+00  2.8370028292706448e-02 9.8760525037299363e-01 0.0000000000000000e+00  2.8594357362228314e-02 9.8806456010210253e-01 0.0000000000000000e+00  2.8837609517015441e-02 9.8858681464400122e-01 0.0000000000000000e+00  2.9048109975284560e-02 9.8906163906066247e-01 0.0000000000000000e+00  2.9263075827611947e-02 9.8957144978970801e-01 0.0000000000000000e+00  2.9468131684403400e-02 9.9008467094720087e-01 0.0000000000000000e+00  2.9651747006417806e-02 9.9056987571045318e-01 0.0000000000000000e+00  2.9844954244988391e-02 9.9111096909322483e-01 0.0000000000000000e+00  3.0007215504872942e-02 9.9159367804104059e-01 0.0000000000000000e+00  3.0178376646219880e-02 9.9213614870507350e-01 0.0000000000000000e+00  3.0327829953755912e-02 9.9264326751755227e-01 0.0000000000000000e+00  3.0470156487767599e-02 9.9316138330435066e-01 0.0000000000000000e+00  3.0608789400795349e-02 9.9370682346605033e-01 0.0000000000000000e+00  3.0725204083090350e-02 9.9420368998632958e-01 0.0000000000000000e+00  3.0845529765050790e-02 9.9476509954587888e-01 0.0000000000000000e+00  3.0943268484367362e-02 9.9526774988160094e-01 0.0000000000000000e+00  3.1039448213405381e-02 9.9581747758516415e-01 0.0000000000000000e+00  3.1122412809176506e-02 9.9635268620456563e-01 0.0000000000000000e+00  3.1192732897401779e-02 9.9687060706881425e-01 0.0000000000000000e+00  3.1258408184204993e-02 9.9743624715473400e-01 0.0000000000000000e+00  3.1307217823556506e-02 9.9794070780522137e-01 0.0000000000000000e+00  3.1351260809055780e-02 9.9850950870241006e-01 0.0000000000000000e+00  3.1381301428093610e-02 9.9902848662710941e-01 0.0000000000000000e+00  3.1402417643703114e-02 9.9957249645392654e-01 0.0000000000000000e+00  3.1413023847409009e-02 1.0001271770766800e+00 0.0000000000000000e+00  3.1413008681290523e-02 1.0006401624494567e+00 0.0000000000000000e+00  3.1401818907459189e-02 1.0012130728044299e+00 0.0000000000000000e+00  3.1382007189879858e-02 1.0017211593949178e+00 0.0000000000000000e+00  3.1349164624857366e-02 1.0022840801128949e+00 0.0000000000000000e+00  3.1307622904687291e-02 1.0028153293446851e+00 0.0000000000000000e+00  3.1256112104672919e-02 1.0033435103740860e+00 0.0000000000000000e+00  3.1190071302696899e-02 1.0039053670558922e+00 0.0000000000000000e+00  3.1120910173572124e-02 1.0044092651820493e+00 0.0000000000000000e+00  3.1031787085205150e-02 1.0049761004534685e+00 0.0000000000000000e+00  3.0941711695919798e-02 1.0054836821420956e+00 0.0000000000000000e+00  3.0834301984048264e-02 1.0060276092664466e+00 0.0000000000000000e+00  3.0717299067307875e-02 1.0065636756673526e+00 0.0000000000000000e+00  3.0596539959603378e-02 1.0070698429088680e+00 0.0000000000000000e+00  3.0452333738867698e-02 1.0076254227533794e+00 0.0000000000000000e+00  3.0314653624084205e-02 1.0081161897082695e+00 0.0000000000000000e+00  3.0149476089080401e-02 1.0086637002879253e+00 0.0000000000000000e+00  2.9986941467532748e-02 1.0091662189268096e+00 0.0000000000000000e+00  2.9809839715116145e-02 1.0096797612546493e+00 0.0000000000000000e+00  2.9615256141590732e-02 1.0102095427525706e+00 0.0000000000000000e+00  2.9428177778765649e-02 1.0106899264388085e+00 0.0000000000000000e+00  2.9207281380248730e-02 1.0112258155237082e+00 0.0000000000000000e+00  2.9001180670246766e-02 1.0116992594133489e+00 0.0000000000000000e+00  2.8764783584619400e-02 1.0122148305880034e+00 0.0000000000000000e+00  2.8527419793811751e-02 1.0127065398948314e+00 0.0000000000000000e+00  2.8286520733737074e-02 1.0131820718181843e+00 0.0000000000000000e+00  2.8015429181548306e-02 1.0136920473863269e+00 0.0000000000000000e+00  2.7764408778628742e-02 1.0141430143859185e+00 0.0000000000000000e+00  2.7471303566827868e-02 1.0146463860578285e+00 0.0000000000000000e+00  2.7196441707923139e-02 1.0150979176709893e+00 0.0000000000000000e+00  2.6896480586024622e-02 1.0155701591404840e+00 0.0000000000000000e+00  2.6584022180880955e-02 1.0160413574993499e+00 0.0000000000000000e+00  2.6284181867749518e-02 1.0164753684841368e+00 0.0000000000000000e+00  2.5940740087820199e-02 1.0169524737118441e+00 0.0000000000000000e+00  2.5627647657075744e-02 1.0173702665341300e+00 0.0000000000000000e+00  2.5269721263553389e-02 1.0178294225763314e+00 0.0000000000000000e+00  2.4925468851915048e-02 1.0182538152672986e+00 0.0000000000000000e+00  2.4570634455638431e-02 1.0186748670094563e+00 0.0000000000000000e+00  2.4186402064205869e-02 1.0191133296129704e+00 0.0000000000000000e+00  2.3831652993165000e-02 1.0195030870499284e+00 0.0000000000000000e+00  2.3422976859314708e-02 1.0199353531011559e+00 0.0000000000000000e+00  2.3049315354415775e-02 1.0203158500088023e+00 0.0000000000000000e+00  2.2636608083248105e-02 1.0207207453006903e+00 0.0000000000000000e+00  2.2223784179759915e-02 1.0211105517254486e+00 0.0000000000000000e+00  2.1821791927337800e-02 1.0214763378445879e+00 0.0000000000000000e+00  2.1372650919391643e-02 1.0218698002824096e+00 0.0000000000000000e+00  2.0966517681769027e-02 1.0222124627105056e+00 0.0000000000000000e+00  2.0502430283142425e-02 1.0225895438567629e+00 0.0000000000000000e+00  2.0069504824163979e-02 1.0229280456350294e+00 0.0000000000000000e+00  1.9613813236096931e-02 1.0232711798154674e+00 0.0000000000000000e+00  1.9137152175758194e-02 1.0236162951632117e+00 0.0000000000000000e+00  1.8693448317469150e-02 1.0239254088208753e+00 0.0000000000000000e+00  1.8189027729578026e-02 1.0242632092480013e+00 0.0000000000000000e+00  1.7734645505114673e-02 1.0245555944913420e+00 0.0000000000000000e+00  1.7227312054563178e-02 1.0248692399819550e+00 0.0000000000000000e+00  1.6736719972714614e-02 1.0251601599520526e+00 0.0000000000000000e+00  1.6248704340718005e-02 1.0254379123570370e+00 0.0000000000000000e+00  1.5717439085866845e-02 1.0257275394629286e+00 0.0000000000000000e+00  1.5236855111428790e-02 1.0259784722370988e+00 0.0000000000000000e+00  1.4689188677716956e-02 1.0262520284279413e+00 0.0000000000000000e+00  1.4189536959967807e-02 1.0264904217500133e+00 0.0000000000000000e+00  1.3652993568986298e-02 1.0267348908023435e+00 0.0000000000000000e+00  1.3110307047966049e-02 1.0269703522920459e+00 0.0000000000000000e+00  1.2597288301622834e-02 1.0271823133641189e+00 0.0000000000000000e+00  1.2023330614988274e-02 1.0274075226354071e+00 0.0000000000000000e+00  1.1510266999096862e-02 1.0275984265835660e+00 0.0000000000000000e+00  1.0933268108922346e-02 1.0278016518891022e+00 0.0000000000000000e+00  1.0391451168483626e-02 1.0279816681924818e+00 0.0000000000000000e+00  9.8388865977456323e-03 1.0281546868604450e+00 0.0000000000000000e+00  9.2543360600989451e-03 1.0283263297535072e+00 0.0000000000000000e+00  8.7219401248309885e-03 1.0284726505947646e+00 0.0000000000000000e+00  8.1191195751810583e-03 1.0286270083179561e+00 0.0000000000000000e+00  7.5778128017165844e-03 1.0287555319348838e+00 0.0000000000000000e+00  6.9866675147686064e-03 1.0288851512577939e+00 0.0000000000000000e+00  6.4077898087557279e-03 1.0290013651069636e+00 0.0000000000000000e+00  5.8492979733009700e-03 1.0291035621441555e+00 0.0000000000000000e+00  5.2366489948488543e-03 1.0292045866743824e+00 0.0000000000000000e+00  4.6900120457554354e-03 1.0292850381377936e+00 0.0000000000000000e+00  4.0734523609942805e-03 1.0293649172048576e+00 0.0000000000000000e+00  3.5082541233458129e-03 1.0294281065570854e+00 0.0000000000000000e+00  2.9182342144600595e-03 1.0294839018000257e+00 0.0000000000000000e+00  2.3125205095709325e-03 1.0295304386575246e+00 0.0000000000000000e+00  1.7540314911072108e-03 1.0295637499690289e+00 0.0000000000000000e+00  1.1283759790028298e-03 1.0295901729655361e+00 0.0000000000000000e+00  5.7241007471737083e-04 1.0296040176045318e+00 0.0000000000000000e+00  -4.2167476776846964e-05 1.0296087872591020e+00 0.0000000000000000e+00  -6.2632684265988281e-04 1.0296030715208246e+00 0.0000000000000000e+00  -1.2033508244653798e-03 1.0295876126019701e+00 0.0000000000000000e+00  -1.8213527307331607e-03 1.0295602213975543e+00 0.0000000000000000e+00  -2.3746186588554010e-03 1.0295261666447826e+00 0.0000000000000000e+00  -2.9975884012306379e-03 1.0294769999283038e+00 0.0000000000000000e+00  -3.5578825278876100e-03 1.0294229406911979e+00 0.0000000000000000e+00  -4.1549193338373033e-03 1.0293550195335950e+00 0.0000000000000000e+00  -4.7487054890401909e-03 1.0292768346400212e+00 0.0000000000000000e+00  -5.3057865873385830e-03 1.0291937621657357e+00 0.0000000000000000e+00  -5.9203790729180777e-03 1.0290910920333243e+00 0.0000000000000000e+00  -6.4634774970862502e-03 1.0289906427368047e+00 0.0000000000000000e+00  -7.0681896000767130e-03 1.0288679367171321e+00 0.0000000000000000e+00  -7.6274137258980322e-03 1.0287441484109552e+00 0.0000000000000000e+00  -8.1939933181515937e-03 1.0286084834482967e+00 0.0000000000000000e+00  -8.7839585578360132e-03 1.0284560915164089e+00 0.0000000000000000e+00  -9.3164626420875161e-03 1.0283086371865260e+00 0.0000000000000000e+00  -9.9120549305923462e-03 1.0281323827778932e+00 0.0000000000000000e+00  -1.0439993572905417e-02 1.0279659616709476e+00 0.0000000000000000e+00  -1.1011742562430574e-02 1.0277747165810345e+00 0.0000000000000000e+00  -1.1562652199008839e-02 1.0275793792253225e+00 0.0000000000000000e+00  -1.2090455233715658e-02 1.0273818251015057e+00 0.0000000000000000e+00  -1.2660963440775868e-02 1.0271565582813496e+00 0.0000000000000000e+00  -1.3164563463772674e-02 1.0269473368282787e+00 0.0000000000000000e+00  -1.3726399956049776e-02 1.0267021387390924e+00 0.0000000000000000e+00  -1.4233855681810023e-02 1.0264697019000022e+00 0.0000000000000000e+00  -1.4759763618475349e-02 1.0262175047300779e+00 0.0000000000000000e+00  -1.5290659860451163e-02 1.0259508915078372e+00 0.0000000000000000e+00  -1.5775993796675256e-02 1.0256962585342444e+00 0.0000000000000000e+00  -1.6312220958530750e-02 1.0254024071670362e+00 0.0000000000000000e+00  -1.6782595825208729e-02 1.0251334631607529e+00 0.0000000000000000e+00  -1.7297437017520581e-02 1.0248266749341903e+00 0.0000000000000000e+00  -1.7778450627401271e-02 1.0245278843982488e+00 0.0000000000000000e+00  -1.8250221588752245e-02 1.0242229804013046e+00 0.0000000000000000e+00  -1.8746884159525728e-02 1.0238887833448822e+00 0.0000000000000000e+00  -1.9186633237947608e-02 1.0235811027254584e+00 0.0000000000000000e+00  -1.9675263333077231e-02 1.0232256730416349e+00 0.0000000000000000e+00  -2.0107796800365351e-02 1.0228986063019458e+00 0.0000000000000000e+00  -2.0564551541755970e-02 1.0225399447148777e+00 0.0000000000000000e+00  -2.1009950535591657e-02 1.0221763933384380e+00 0.0000000000000000e+00  -2.1424037381041528e-02 1.0218255766144797e+00 0.0000000000000000e+00  -2.1873011189420425e-02 1.0214304623493802e+00 0.0000000000000000e+00  -2.2264083587956892e-02 1.0210731456645050e+00 0.0000000000000000e+00  -2.2693859163953070e-02 1.0206655058800453e+00 0.0000000000000000e+00  -2.3083442314547942e-02 1.0202816572797020e+00 0.0000000000000000e+00  -2.3474503689318398e-02 1.0198817975938637e+00 0.0000000000000000e+00  -2.3872897084450086e-02 1.0194584819829844e+00 0.0000000000000000e+00  -2.4227870930459524e-02 1.0190668356965780e+00 0.0000000000000000e+00  -2.4617772284472435e-02 1.0186198434611109e+00 0.0000000000000000e+00  -2.4956808931227627e-02 1.0182158422115506e+00 0.0000000000000000e+00  -2.5319030889576384e-02 1.0177672796598252e+00 0.0000000000000000e+00  -2.5659433954895203e-02 1.0173285573832898e+00 0.0000000000000000e+00  -2.5981615537289521e-02 1.0168967529327679e+00 0.0000000000000000e+00  -2.6321441181052115e-02 1.0164223570000519e+00 0.0000000000000000e+00  -2.6615844024120417e-02 1.0159942809337223e+00 0.0000000000000000e+00  -2.6937751555324702e-02 1.0155063887518538e+00 0.0000000000000000e+00  -2.7220951744198842e-02 1.0150584042117579e+00 0.0000000000000000e+00  -2.7509848958767048e-02 1.0145815287881736e+00 0.0000000000000000e+00  -2.7792460725090035e-02 1.0140935606495647e+00 0.0000000000000000e+00  -2.8045952098413679e-02 1.0136358711569395e+00 0.0000000000000000e+00  -2.8318060075633037e-02 1.0131210812067324e+00 0.0000000000000000e+00  -2.8550158305654633e-02 1.0126604808720343e+00 0.0000000000000000e+00  -2.8797958361097328e-02 1.0121441119134393e+00 0.0000000000000000e+00  -2.9020962012123563e-02 1.0116548376455767e+00 0.0000000000000000e+00  -2.9234780773527223e-02 1.0111607928534188e+00 0.0000000000000000e+00  -2.9450814961369393e-02 1.0106331682770804e+00 0.0000000000000000e+00  -2.9636035071470633e-02 1.0101545226199773e+00 0.0000000000000000e+00  -2.9834029946246361e-02 1.0096115008168955e+00 0.0000000000000000e+00  -3.0001669326019168e-02 1.0091220133649819e+00 0.0000000000000000e+00  -3.0172280337678149e-02 1.0085904945050466e+00 0.0000000000000000e+00  -3.0329464696720796e-02 1.0080650241176377e+00 0.0000000000000000e+00  -3.0469455741044725e-02 1.0075618598710443e+00 0.0000000000000000e+00  -3.0612203877116478e-02 1.0070064967398793e+00 0.0000000000000000e+00  -3.0729226658067883e-02 1.0065112812139612e+00 0.0000000000000000e+00  -3.0849680775309894e-02 1.0059531297724271e+00 0.0000000000000000e+00  -3.0950149732274845e-02 1.0054383733396757e+00 0.0000000000000000e+00  -3.1043694112582058e-02 1.0049046134338164e+00 0.0000000000000000e+00  -3.1129237882559030e-02 1.0043520661383056e+00 0.0000000000000000e+00  -3.1197759398997823e-02 1.0038447393918020e+00 0.0000000000000000e+00  -3.1263419086152204e-02 1.0032745428678771e+00 0.0000000000000000e+00  -3.1311840320488421e-02 1.0027668475812124e+00 0.0000000000000000e+00  -3.1354336622890035e-02 1.0022070642342944e+00 0.0000000000000000e+00  -3.1384368782655110e-02 1.0016712035844535e+00 0.0000000000000000e+00  -3.1403769051921465e-02 1.0011449836142814e+00 0.0000000000000000e+00  -3.1413516376818128e-02 1.0005778905126215e+00 0.0000000000000000e+00  -3.1412450967159118e-02 1.0000707723631390e+00 0.0000000000000000e+00  -3.1400189741873683e-02 9.9949909322263419e-01 0.0000000000000000e+00  -3.1379055123248963e-02 9.9898296678104637e-01 0.0000000000000000e+00  -3.1346148002028160e-02 9.9843489464900748e-01 0.0000000000000000e+00  -3.1302377897140229e-02 9.9788607431067733e-01 0.0000000000000000e+00  -3.1251625434049315e-02 9.9737284162230011e-01 0.0000000000000000e+00  -3.1184297990972946e-02 9.9680443446089728e-01 0.0000000000000000e+00  -3.1114945678944527e-02 9.9630157416601595e-01 0.0000000000000000e+00  -3.1026850930745708e-02 9.9574167405655867e-01 0.0000000000000000e+00  -3.0934648395282406e-02 9.9522137366354391e-01 0.0000000000000000e+00  -3.0831312443661812e-02 9.9469576482693933e-01 0.0000000000000000e+00  -3.0712064370300371e-02 9.9414553398297723e-01 0.0000000000000000e+00  -3.0594679133373413e-02 9.9364916814464088e-01 0.0000000000000000e+00  -3.0451880687372965e-02 9.9309265859379414e-01 0.0000000000000000e+00  -3.0314922678614423e-02 9.9259805037722726e-01 0.0000000000000000e+00  -3.0155860603631027e-02 9.9206260159843895e-01 0.0000000000000000e+00  -2.9990998371571070e-02 9.9154413904765271e-01 0.0000000000000000e+00  -2.9823079026024841e-02 9.9104796851555077e-01 0.0000000000000000e+00  -2.9629443968822680e-02 9.9050952626190070e-01 0.0000000000000000e+00  -2.9448234480187015e-02 9.9003358679841369e-01 0.0000000000000000e+00  -2.9234325472234163e-02 9.8950166244158777e-01 0.0000000000000000e+00  -2.9029851477824720e-02 9.8901950348927481e-01 0.0000000000000000e+00  -2.8807081025000091e-02 9.8851976