<?xml version="1.0"?>
<VTKFile type="UnstructuredGrid"  version="0.1"  >
<UnstructuredGrid>
<Piece  NumberOfPoints="4278" NumberOfCells="6772">
<Points>
<DataArray  type="Float64"  NumberOfComponents="3"  format="ascii">0 0.01 0  10 0.01 0  0 1.0209841656229 0  10 1.0209841656229 0  0.007129524987038337 0.009997491741717768 0  0.01258064459049757 0.00999219056738478 0  0.01872173241756402 0.009982708334120727 0  0.02429919625640796 0.009970876572043954 0  0.03017238705920286 0.009955108531615313 0  0.03612352734296466 0.0099356743715591 0  0.04164979236492252 0.009914517792428084 0  0.04780928449023854 0.009887415768096998 0  0.05327287671237849 0.009860276931383746 0  0.0593436395885565 0.009826715421083503 0  0.06505608699933001 0.009791870631895848 0  0.07077243060783153 0.009753845329312128 0  0.07684085351634186 0.009710036052663748 0  0.08230528612367993 0.009667566921662384 0  0.08846525752759338 0.009616276826848907 0  0.09398926586603956 0.0095672187064786 0  0.09994377871281757 0.009511110804477986 0  0.10581288515308 0.009452550633355501 0  0.1113930001121819 0.009393893683773193 0  0.1175326299024069 0.009326020378011352 0  0.122983161250664 0.009262856809916281 0  0.1290978349347763 0.009188765415777931 0  0.1347300222736412 0.00911751981665075 0  0.1405327472005438 0.009041131768776852 0  0.1465421455697866 0.008958856277281909 0  0.1520341809431761 0.008880870879718691 0  0.1581991754706344 0.00879018143976357 0  0.1636834803794234 0.008706732874359017 0  0.1697073563005918 0.008612096527554045 0  0.1754901396361989 0.008518345936558386 0  0.1811391035120075 0.008424050210098115 0  0.1872444279222087 0.00831915423323064 0  0.1926961446341008 0.008222899998379215 0  0.198841090009393 0.008111516418624823 0  0.2044064770158165 0.008008028244452866 0  0.2102948627703611 0.007895869216798803 0  0.2162299794791283 0.007780085801116003 0  0.2217647046821167 0.007669675498109103 0  0.2279204403470532 0.007544154739747676 0  0.2333791472114919 0.007430485124751003 0  0.2394590817234977 0.0073013084386626 0  0.245152498789355 0.007177928079207972 0  0.2508861115607116 0.007051356111670669 0  0.2569419868439766 0.006915186417023598 0  0.2624099649457279 0.006790084113692359 0  0.2685711825796066 0.006646722567663751 0  0.274083748205357 0.006516341894728842 0  0.2800541704182985 0.00637292855786236 0  0.2859022845836161 0.006230279166502627 0  0.291495955429921 0.006091868246150131 0  0.2976275706217687 0.005937986548763313 0  0.3030757324287757 0.005799406374294222 0  0.3091980118239236 0.005641654227187252 0  0.3148109405089491 0.005495191514879527 0  0.3206341933715942 0.005341435282378838 0  0.3266248575896781 0.005181393525330103 0  0.3321252080346692 0.005032833254881577 0  0.3382880718234609 0.004864596209960478 0  0.3437628463580178 0.004713611578807419 0  0.3498021006600692 0.004545443593512952 0  0.3555594631656461 0.004383601001460968 0  0.3612291099056053 0.004222822711549606 0  0.3673210805066339 0.004048576418709386 0  0.3727746135437823 0.003891330909934085 0  0.3789246700786391 0.003712634483246944 0  0.3844721023230384 0.00355025746928806 0  0.3903845048135511 0.003376011435332509 0  0.3962935688476314 0.003200699755406988 0  0.4018430601204535 0.00303505085978487 0  0.4079921977692303 0.002850427660455144 0  0.4134449905916002 0.002685819499171436 0  0.4195385366679084 0.002500937932218923 0  0.425204482428441 0.002328206591247292 0  0.4309651825948974 0.00215183074136113 0  0.4370014133195289 0.001966263547608745 0  0.4424769325836848 0.00179732019881714 0  0.4486395183564056 0.001606544730410899 0  0.4541373275735043 0.001435838569361521 0  0.4601308451156257 0.001249254088784412 0  0.4659488863550298 0.001067707976620331 0  0.471564807260988 0.0008921302908496037 0  0.4776843759254726 0.0007004920228137959 0  0.4831317484445766 0.0005296836585198918 0  0.4892643513384632 0.0003372062279158936 0  0.4948528283485032 0.000161696161435303 0  0.5007056813361916 -2.216943068070812e-05 0  0.5066699093509902 -0.000209526046556915 0  0.5121845298566023 -0.0003826949545447442 0  0.5183439831944545 -0.0005759742926309219 0  0.5238088617282698 -0.0007472800272428554 0  0.5298681543527348 -0.0009369594486414562 0  0.5355929349139432 -0.001115856450691032 0  0.5412927239341832 -0.001293613669039852 0  0.5473668732672543 -0.001482588207084091 0  0.5528259073001393 -0.001651967505962102 0  0.5589819336317072 -0.001842386787779294 0  0.5645100189486582 -0.002012797049529044 0  0.5704524332663232 -0.002195301346534757 0  0.5763298911552834 -0.002375058665203144 0  0.5819006708717119 -0.002544689651648297 0  0.5880413281562127 -0.002730768313747055 0  0.5934904284812221 -0.002895042191696308 0  0.5995995320960693 -0.003078202338538874 0  0.605236779888003 -0.003246210954182579 0  0.6110299855290301 -0.003417806240976177 0  0.6170432999212266 -0.00359472323302265 0  0.6225307972792151 -0.00375505261922207 0  0.6286944373476531 -0.003933803567825084 0  0.6341794289295242 -0.004091634709336539 0  0.6401977648984302 -0.004263413669385436 0  0.6459846030577213 -0.004427148756161272 0  0.6516277670629291 -0.004585409549508515 0  0.6577342305863492 -0.004755038487876419 0  0.6631843111407589 -0.004904958327357115 0  0.6693271588517591 -0.005072208653571043 0  0.6748942591145469 -0.005222152905474348 0  0.6807781354428797 -0.005378892074409919 0  0.6867158102497221 -0.005535201343768038 0  0.6922478556369909 -0.005679100421160843 0  0.6984036264198542 -0.005837205328254034 0  0.7038624132928571 -0.005975584427524931 0  0.7099402809449575 -0.006127588021236129 0  0.7156361945945205 -0.006268012368771779 0  0.7213667017809595 -0.006407263887957157 0  0.7274241898103784 -0.006552202568912044 0  0.7328913375361901 -0.006680980644346233 0  0.7390522654079078 -0.006823736587757829 0  0.7445663161830813 -0.006949337256267011 0  0.7505345306161221 -0.007082931996795786 0  0.7563856967966242 -0.007211490056377221 0  0.7619775509571868 -0.007332073958440476 0  0.7681106054434813 -0.007461725199742056 0  0.7735594228940573 -0.007574589702563127 0  0.7796809699364847 -0.007698739982391196 0  0.7852974086111042 -0.007810142587226769 0  0.7911178568436495 -0.007923025648348906 0  0.797112403703894 -0.008036515862006795 0  0.8026119630288198 -0.008138129173272899 0  0.8087760180262171 -0.008249131188213875 0  0.814253500572072 -0.008345174877796967 0  0.8202905515677629 -0.008448166667805387 0  0.8260544286221699 -0.008543663134562481 0  0.831720415905675 -0.008634807324656511 0  0.8378167080097026 -0.008729817306667463 0  0.8432709709919499 -0.008812108559864256 0  0.8494209576248264 -0.008901791974276371 0  0.8549745826348545 -0.008979924427376591 0  0.8608814329347291 -0.009060026011188804 0  0.8667998142885592 -0.009137155111096256 0  0.8723460990452367 -0.009206568509458774 0  0.8784989383774584 -0.009280301817794542 0  0.8839552890388401 -0.009342788637451834 0  0.8900456692707091 -0.009409293585850673 0  0.8957233874467343 -0.009468190513990782 0  0.9014754209053449 -0.009524786393944277 0  0.9075213579987256 -0.009580921173179099 0  0.9129954731058688 -0.009628765913494807 0  0.9191593188847452 -0.009679229788646495 0  0.9246655330424429 -0.009721240864333262 0  0.9306503084472221 -0.009763603884533442 0  0.9364847200361547 -0.009801580348484516 0  0.9420914259676206 -0.009834972127394636 0  0.948219177636862 -0.009867976960504428 0  0.9536688877131657 -0.009894257783109666 0  0.9597979104438458 -0.009920349306153329 0  0.9654020314719589 -0.009940987600901847 0  0.9712398170272581 -0.009959209624459757 0  0.9772219132298864 -0.009974407121723252 0  0.9827297975109929 -0.009985285083248089 0  0.9888934840407251 -0.009993913310034224 0  0.9943667421923366 -0.009998434045983932 0  1.000414962337846 -0.009999991502249178 0  1.00616395254491 -0.009998125110441144 0  1.011844857354635 -0.009993077234903055 0  1.017933801412069 -0.009984132829796667 0  1.023390946643176 -0.00997301205183276 0  1.029544679732296 -0.009956955598792184 0  1.035089558108845 -0.009939300412459717 0  1.041010936359372 -0.009917116481575694 0  1.04691554237944 -0.00989157814857561 0  1.052471258615448 -0.009864440751261633 0  1.05862104751389 -0.009830897850136421 0  1.064075481579663 -0.009798076706746352 0  1.070173358231585 -0.009757978136698224 0  1.075837941143087 -0.00971752009646258 0  1.081604377355612 -0.009673173917302162 0  1.087640686528322 -0.009623351755525641 0  1.093119387704205 -0.009575135453199036 0  1.099284093826516 -0.009517491101966447 0  1.104783734376909 -0.009463052176492596 0  1.110779897618174 -0.009400480030121557 0  1.116599992234411 -0.00933655469875222 0  1.122217899723542 -0.009271889359757672 0  1.128339818747432 -0.009198135031144493 0  1.133789446190431 -0.00912961705214143 0  1.139923317158062 -0.009049295973540348 0  1.145515844317945 -0.008973134373133167 0  1.151367773813766 -0.008890475161473248 0  1.157336906671575 -0.008803064948780913 0  1.16285160438384 -0.008719557366803981 0  1.16901331600552 -0.008623157866544266 0  1.174481522907442 -0.00853490108265173 0  1.180539122189597 -0.008434191931863186 0  1.186271617394136 -0.008336073959344166 0  1.191966996821913 -0.008235914041393521 0  1.198046448076202 -0.008126091334838595 0  1.203505695906331 -0.008024945109277802 0  1.209661806077474 -0.007908057515838151 0  1.21519584913737 -0.007800455577732041 0  1.221132109188887 -0.00768241304184519 0  1.227019087412133 -0.007562711583992629 0  1.232585135446325 -0.007447155722966398 0  1.238729389023077 -0.007316953404904543 0  1.244180486899644 -0.007199156086382225 0  1.250286093435722 -0.007064709646262071 0  1.255932842016573 -0.006938052500145445 0  1.261716857103797 -0.006806053534187844 0  1.26773845151126 -0.006666245775332091 0  1.273222687278595 -0.006536836953056475 0  1.279386853652711 -0.00638906998029936 0  1.284876650734994 -0.006255450389977176 0  1.290887326898431 -0.00610702037198264 0  1.296685536664392 -0.00596177282270944 0  1.30231949087952 -0.005818744638503708 0  1.308431215520824 -0.
[...]
<PointData  Vectors="Velocity"> 
<DataArray  type="Float64"  Name="Velocity"  NumberOfComponents="3" format="ascii">-1.3931009826516055e-10 9.7039118677889169e-01 0.0000000000000000e+00  -1.3931009826516055e-10 9.7039118677889169e-01 0.0000000000000000e+00  1.0535388637931691e-05 -3.2374454976772854e-02 0.0000000000000000e+00  1.0535388637931691e-05 -3.2374454976772854e-02 0.0000000000000000e+00  6.8276937275288407e-04 9.7039837325285250e-01 0.0000000000000000e+00  1.2046099756398544e-03 9.7041356190795625e-01 0.0000000000000000e+00  1.7921088235398487e-03 9.7044073060039049e-01 0.0000000000000000e+00  2.3251659667803998e-03 9.7047463240340459e-01 0.0000000000000000e+00  2.8857804098667752e-03 9.7051981479176153e-01 0.0000000000000000e+00  3.4529207909500888e-03 9.7057550524310687e-01 0.0000000000000000e+00  3.9785890399707240e-03 9.7063613546957883e-01 0.0000000000000000e+00  4.5631958136594600e-03 9.7071380995716017e-01 0.0000000000000000e+00  5.0804550680444175e-03 9.7079159647468150e-01 0.0000000000000000e+00  5.6535890459461814e-03 9.7088780113424056e-01 0.0000000000000000e+00  6.1911839128359972e-03 9.7098769529374407e-01 0.0000000000000000e+00  6.7273225086696125e-03 9.7109671997976565e-01 0.0000000000000000e+00  7.2943106665652752e-03 9.7122234431470233e-01 0.0000000000000000e+00  7.8027982590580898e-03 9.7134414213684206e-01 0.0000000000000000e+00  8.3734814796396027e-03 9.7149125981832829e-01 0.0000000000000000e+00  8.8828125416907100e-03 9.7163199780311382e-01 0.0000000000000000e+00  9.4290914000493171e-03 9.7179298653224411e-01 0.0000000000000000e+00  9.9645790742749294e-03 9.7196104194744193e-01 0.0000000000000000e+00  1.0470824134668226e-02 9.7212940664524194e-01 0.0000000000000000e+00  1.1024416328030372e-02 9.7232426408414774e-01 0.0000000000000000e+00  1.1512728185416482e-02 9.7250563745781216e-01 0.0000000000000000e+00  1.2056846592526522e-02 9.7271843644742029e-01 0.0000000000000000e+00  1.2554419669598627e-02 9.7292310935806514e-01 0.0000000000000000e+00  1.3063279394034965e-02 9.7314260649664752e-01 0.0000000000000000e+00  1.3586052214919996e-02 9.7337907986906613e-01 0.0000000000000000e+00  1.4059924486850410e-02 9.7360327989592055e-01 0.0000000000000000e+00  1.4587262808298716e-02 9.7386407267486519e-01 0.0000000000000000e+00  1.5052141503539325e-02 9.7410410934316205e-01 0.0000000000000000e+00  1.5558004059477137e-02 9.7437640356641264e-01 0.0000000000000000e+00  1.6038781331597730e-02 9.7464623024144925e-01 0.0000000000000000e+00  1.6503709343355721e-02 9.7491770734453342e-01 0.0000000000000000e+00  1.7000786717391553e-02 9.7521979773096068e-01 0.0000000000000000e+00  1.7439760197688448e-02 9.7549708870145813e-01 0.0000000000000000e+00  1.7928861589288511e-02 9.7581807129118925e-01 0.0000000000000000e+00  1.8366489069640887e-02 9.7611640348058160e-01 0.0000000000000000e+00  1.8823833647006540e-02 9.7643984222875280e-01 0.0000000000000000e+00  1.9278750810846491e-02 9.7677385352525947e-01 0.0000000000000000e+00  1.9697358932094452e-02 9.7709248013500605e-01 0.0000000000000000e+00  2.0156414419177815e-02 9.7745484946661054e-01 0.0000000000000000e+00  2.0557613732842279e-02 9.7778313031298847e-01 0.0000000000000000e+00  2.0997819155811278e-02 9.7815634057114098e-01 0.0000000000000000e+00  2.1403552473975927e-02 9.7851294888701423e-01 0.0000000000000000e+00  2.1805671582097685e-02 9.7887892849021685e-01 0.0000000000000000e+00  2.2223191521330104e-02 9.7927282470782262e-01 0.0000000000000000e+00  2.2593699105782607e-02 9.7963485742296108e-01 0.0000000000000000e+00  2.3003671785482314e-02 9.8004990994039187e-01 0.0000000000000000e+00  2.3363616548726689e-02 9.8042754710177393e-01 0.0000000000000000e+00  2.3746009842527022e-02 9.8084311404942770e-01 0.0000000000000000e+00  2.4112934240767641e-02 9.8125665719854527e-01 0.0000000000000000e+00  2.4456704521809536e-02 9.8165809536956528e-01 0.0000000000000000e+00  2.4825329530742554e-02 9.8210461364668500e-01 0.0000000000000000e+00  2.5145552434100642e-02 9.8250692011839913e-01 0.0000000000000000e+00  2.5497061445503295e-02 9.8296510334148735e-01 0.0000000000000000e+00  2.5811461049959735e-02 9.8339070654396143e-01 0.0000000000000000e+00  2.6129577530927383e-02 9.8383772020063365e-01 0.0000000000000000e+00  2.6448151354062178e-02 9.8430324289043925e-01 0.0000000000000000e+00  2.6732788823453913e-02 9.8473558471402722e-01 0.0000000000000000e+00  2.7042655173005459e-02 9.8522544189916816e-01 0.0000000000000000e+00  2.7309799353697504e-02 9.8566529262172053e-01 0.0000000000000000e+00  2.7595510735003166e-02 9.8615545477739042e-01 0.0000000000000000e+00  2.7859020409227327e-02 9.8662743343191250e-01 0.0000000000000000e+00  2.8109960747384984e-02 9.8709655500283333e-01 0.0000000000000000e+00  2.8370033354072247e-02 9.8760525022535051e-01 0.0000000000000000e+00  2.8594362103096578e-02 9.8806455996370379e-01 0.0000000000000000e+00  2.8837624399731254e-02 9.8858681420911709e-01 0.0000000000000000e+00  2.9048130560719115e-02 9.8906163845627926e-01 0.0000000000000000e+00  2.9263086371947439e-02 9.8957144947490694e-01 0.0000000000000000e+00  2.9468144340025565e-02 9.9008467057152982e-01 0.0000000000000000e+00  2.9651749504036332e-02 9.9056987563500520e-01 0.0000000000000000e+00  2.9844958143128056e-02 9.9111096897520767e-01 0.0000000000000000e+00  3.0007217102936190e-02 9.9159367799200426e-01 0.0000000000000000e+00  3.0178379201592130e-02 9.9213614862793864e-01 0.0000000000000000e+00  3.0327838543853562e-02 9.9264326724442531e-01 0.0000000000000000e+00  3.0470159449348205e-02 9.9316138321160941e-01 0.0000000000000000e+00  3.0608793380438579e-02 9.9370682334013338e-01 0.0000000000000000e+00  3.0725204435646518e-02 9.9420368997040831e-01 0.0000000000000000e+00  3.0845531609172215e-02 9.9476509948415393e-01 0.0000000000000000e+00  3.0943270694426570e-02 9.9526774981010946e-01 0.0000000000000000e+00  3.1039446405865694e-02 9.9581747763099759e-01 0.0000000000000000e+00  3.1122411627153714e-02 9.9635268623494611e-01 0.0000000000000000e+00  3.1192732638106294e-02 9.9687060706065422e-01 0.0000000000000000e+00  3.1258408322227656e-02 9.9743624714337586e-01 0.0000000000000000e+00  3.1307219695424500e-02 9.9794070774597188e-01 0.0000000000000000e+00  3.1351258782766483e-02 9.9850950875011046e-01 0.0000000000000000e+00  3.1381297257244027e-02 9.9902848673691258e-01 0.0000000000000000e+00  3.1402414436104462e-02 9.9957249653867919e-01 0.0000000000000000e+00  3.1413021627457481e-02 1.0001271771334908e+00 0.0000000000000000e+00  3.1413005067415484e-02 1.0006401625474333e+00 0.0000000000000000e+00  3.1401813079612435e-02 1.0012130729420226e+00 0.0000000000000000e+00  3.1382002901328775e-02 1.0017211595049336e+00 0.0000000000000000e+00  3.1349159679368840e-02 1.0022840802289263e+00 0.0000000000000000e+00  3.1307620977862223e-02 1.0028153293984072e+00 0.0000000000000000e+00  3.1256110531472349e-02 1.0033435104316530e+00 0.0000000000000000e+00  3.1190069742806987e-02 1.0039053671126617e+00 0.0000000000000000e+00  3.1120909182629039e-02 1.0044092652226997e+00 0.0000000000000000e+00  3.1031786618755480e-02 1.0049761004595776e+00 0.0000000000000000e+00  3.0941711180046003e-02 1.0054836821566631e+00 0.0000000000000000e+00  3.0834300962610015e-02 1.0060276092879377e+00 0.0000000000000000e+00  3.0717298389521530e-02 1.0065636756776326e+00 0.0000000000000000e+00  3.0596539743688502e-02 1.0070698428917417e+00 0.0000000000000000e+00  3.0452332848121880e-02 1.0076254227736976e+00 0.0000000000000000e+00  3.0314654801938186e-02 1.0081161896400457e+00 0.0000000000000000e+00  3.0149475333064443e-02 1.0086637003064327e+00 0.0000000000000000e+00  2.9986941045994614e-02 1.0091662189419388e+00 0.0000000000000000e+00  2.9809838741454486e-02 1.0096797613053823e+00 0.0000000000000000e+00  2.9615255969033506e-02 1.0102095427607432e+00 0.0000000000000000e+00  2.9428178059791331e-02 1.0106899264403624e+00 0.0000000000000000e+00  2.9207281438457872e-02 1.0112258155267981e+00 0.0000000000000000e+00  2.9001183006970774e-02 1.0116992593354437e+00 0.0000000000000000e+00  2.8764783813308104e-02 1.0122148305947638e+00 0.0000000000000000e+00  2.8527420253115516e-02 1.0127065398867128e+00 0.0000000000000000e+00  2.8286521347595149e-02 1.0131820718239521e+00 0.0000000000000000e+00  2.8015428669891592e-02 1.0136920474186737e+00 0.0000000000000000e+00  2.7764410370663507e-02 1.0141430143659123e+00 0.0000000000000000e+00  2.7471301602525210e-02 1.0146463861380399e+00 0.0000000000000000e+00  2.7196435776501101e-02 1.0150979178740485e+00 0.0000000000000000e+00  2.6896478057167286e-02 1.0155701592255659e+00 0.0000000000000000e+00  2.6584021625066911e-02 1.0160413575249785e+00 0.0000000000000000e+00  2.6284182137308765e-02 1.0164753684963805e+00 0.0000000000000000e+00  2.5940760902604693e-02 1.0169524731547144e+00 0.0000000000000000e+00  2.5627664520683532e-02 1.0173702660967212e+00 0.0000000000000000e+00  2.5269725212303886e-02 1.0178294224908002e+00 0.0000000000000000e+00  2.4925474395197645e-02 1.0182538151252229e+00 0.0000000000000000e+00  2.4570645800818018e-02 1.0186748667024923e+00 0.0000000000000000e+00  2.4186405205494307e-02 1.0191133295116548e+00 0.0000000000000000e+00  2.3831670434615163e-02 1.0195030865815704e+00 0.0000000000000000e+00  2.3422991077851042e-02 1.0199353527194002e+00 0.0000000000000000e+00  2.3049328426157419e-02 1.0203158496804881e+00 0.0000000000000000e+00  2.2636613321229952e-02 1.0207207451764504e+00 0.0000000000000000e+00  2.2223788005610125e-02 1.0211105516206411e+00 0.0000000000000000e+00  2.1821794807607386e-02 1.0214763377604250e+00 0.0000000000000000e+00  2.1372652405428860e-02 1.0218698002269340e+00 0.0000000000000000e+00  2.0966523280160073e-02 1.0222124625315361e+00 0.0000000000000000e+00  2.0502433244607057e-02 1.0225895437607355e+00 0.0000000000000000e+00  2.0069505222895138e-02 1.0229280455958576e+00 0.0000000000000000e+00  1.9613809287040766e-02 1.0232711798249596e+00 0.0000000000000000e+00  1.9137143911831477e-02 1.0236162952025822e+00 0.0000000000000000e+00  1.8693441648630939e-02 1.0239254087977612e+00 0.0000000000000000e+00  1.8189024263532829e-02 1.0242632092288004e+00 0.0000000000000000e+00  1.7734643041942035e-02 1.0245555944485700e+00 0.0000000000000000e+00  1.7227312040120683e-02 1.0248692399736210e+00 0.0000000000000000e+00  1.6736721017186124e-02 1.0251601599269675e+00 0.0000000000000000e+00  1.6248703628743564e-02 1.0254379123633630e+00 0.0000000000000000e+00  1.5717438426302820e-02 1.0257275394636560e+00 0.0000000000000000e+00  1.5236852986939803e-02 1.0259784722370753e+00 0.0000000000000000e+00  1.4689186951601150e-02 1.0262520284158660e+00 0.0000000000000000e+00  1.4189536660749888e-02 1.0264904217420145e+00 0.0000000000000000e+00  1.3652993269324018e-02 1.0267348907886242e+00 0.0000000000000000e+00  1.3110306601600077e-02 1.0269703522828078e+00 0.0000000000000000e+00  1.2597287673684423e-02 1.0271823133550835e+00 0.0000000000000000e+00  1.2023329861075734e-02 1.0274075226177013e+00 0.0000000000000000e+00  1.1510267079522341e-02 1.0275984265773317e+00 0.0000000000000000e+00  1.0933265960675736e-02 1.0278016518591075e+00 0.0000000000000000e+00  1.0391449731838160e-02 1.0279816681740455e+00 0.0000000000000000e+00  9.8388862443395068e-03 1.0281546868591689e+00 0.0000000000000000e+00  9.2543353996130794e-03 1.0283263297410596e+00 0.0000000000000000e+00  8.7219396320087524e-03 1.0284726506014488e+00 0.0000000000000000e+00  8.1191193204264971e-03 1.0286270083099722e+00 0.0000000000000000e+00  7.5778105490405491e-03 1.0287555318896682e+00 0.0000000000000000e+00  6.9866669404479876e-03 1.0288851512277644e+00 0.0000000000000000e+00  6.4077886538383092e-03 1.0290013650788221e+00 0.0000000000000000e+00  5.8492942281224859e-03 1.0291035620463707e+00 0.0000000000000000e+00  5.2366474976359798e-03 1.0292045866379693e+00 0.0000000000000000e+00  4.6900101359413490e-03 1.0292850380773886e+00 0.0000000000000000e+00  4.0734525139131117e-03 1.0293649171800434e+00 0.0000000000000000e+00  3.5082553260187507e-03 1.0294281065821129e+00 0.0000000000000000e+00  2.9182337288513383e-03 1.0294839017526558e+00 0.0000000000000000e+00  2.3125203353268693e-03 1.0295304386223409e+00 0.0000000000000000e+00  1.7540316385277214e-03 1.0295637499714960e+00 0.0000000000000000e+00  1.1283768330763561e-03 1.0295901729717039e+00 0.0000000000000000e+00  5.7241018144216292e-04 1.0296040175332648e+00 0.0000000000000000e+00  -4.2166929808199147e-05 1.0296087872260866e+00 0.0000000000000000e+00  -6.2632711723255687e-04 1.0296030714131403e+00 0.0000000000000000e+00  -1.2033515674819617e-03 1.0295876125332306e+00 0.0000000000000000e+00  -1.8213522082774882e-03 1.0295602213765804e+00 0.0000000000000000e+00  -2.3746186149462595e-03 1.0295261665762787e+00 0.0000000000000000e+00  -2.9975876345080419e-03 1.0294769997938860e+00 0.0000000000000000e+00  -3.5578813958431414e-03 1.0294229406387345e+00 0.0000000000000000e+00  -4.1549172991926665e-03 1.0293550194309364e+00 0.0000000000000000e+00  -4.7487044024370692e-03 1.0292768346020071e+00 0.0000000000000000e+00  -5.3057859951672363e-03 1.0291937621405882e+00 0.0000000000000000e+00  -5.9203783553193742e-03 1.0290910920015657e+00 0.0000000000000000e+00  -6.4634748244781371e-03 1.0289906426550282e+00 0.0000000000000000e+00  -7.0681882216090041e-03 1.0288679366753009e+00 0.0000000000000000e+00  -7.6274109566462607e-03 1.0287441483339832e+00 0.0000000000000000e+00  -8.1939924035827564e-03 1.0286084834230842e+00 0.0000000000000000e+00  -8.7839575712011595e-03 1.0284560914999745e+00 0.0000000000000000e+00  -9.3164614894486950e-03 1.0283086371597614e+00 0.0000000000000000e+00  -9.9120523917287234e-03 1.0281323826992073e+00 0.0000000000000000e+00  -1.0439992671587699e-02 1.0279659616190031e+00 0.0000000000000000e+00  -1.1011739536703145e-02 1.0277747164879727e+00 0.0000000000000000e+00  -1.1562650023920066e-02 1.0275793791972485e+00 0.0000000000000000e+00  -1.2090454099745998e-02 1.0273818250849052e+00 0.0000000000000000e+00  -1.2660961393570454e-02 1.0271565582508047e+00 0.0000000000000000e+00  -1.3164563038916409e-02 1.0269473368003850e+00 0.0000000000000000e+00  -1.3726395571725459e-02 1.0267021387023634e+00 0.0000000000000000e+00  -1.4233850606079292e-02 1.0264697019116393e+00 0.0000000000000000e+00  -1.4759760708858417e-02 1.0262175047611302e+00 0.0000000000000000e+00  -1.5290657839902253e-02 1.0259508915537101e+00 0.0000000000000000e+00  -1.5775991868192518e-02 1.0256962586120744e+00 0.0000000000000000e+00  -1.6312219597928512e-02 1.0254024072076144e+00 0.0000000000000000e+00  -1.6782593888831330e-02 1.0251334632141853e+00 0.0000000000000000e+00  -1.7297435361790455e-02 1.0248266749503867e+00 0.0000000000000000e+00  -1.7778449596013522e-02 1.0245278844139019e+00 0.0000000000000000e+00  -1.8250219944988030e-02 1.0242229804152339e+00 0.0000000000000000e+00  -1.8746880083597626e-02 1.0238887834028469e+00 0.0000000000000000e+00  -1.9186634413704783e-02 1.0235811026946116e+00 0.0000000000000000e+00  -1.9675260457812146e-02 1.0232256730672808e+00 0.0000000000000000e+00  -2.0107800241078264e-02 1.0228986062705656e+00 0.0000000000000000e+00  -2.0564543737442174e-02 1.0225399447806216e+00 0.0000000000000000e+00  -2.1009958294523793e-02 1.0221763932843821e+00 0.0000000000000000e+00  -2.1424034744231480e-02 1.0218255766382012e+00 0.0000000000000000e+00  -2.1873012719012604e-02 1.0214304623375723e+00 0.0000000000000000e+00  -2.2264083280824212e-02 1.0210731456615640e+00 0.0000000000000000e+00  -2.2693858132739390e-02 1.0206655058853060e+00 0.0000000000000000e+00  -2.3083443122118210e-02 1.0202816572730415e+00 0.0000000000000000e+00  -2.3474505082666446e-02 1.0198817975691763e+00 0.0000000000000000e+00  -2.3872896809995992e-02 1.0194584819877057e+00 0.0000000000000000e+00  -2.4227871223481818e-02 1.0190668356887260e+00 0.0000000000000000e+00  -2.4617770122742421e-02 1.0186198434948677e+00 0.0000000000000000e+00  -2.4956808716579248e-02 1.0182158422065914e+00 0.0000000000000000e+00  -2.5319029332028821e-02 1.0177672796841233e+00 0.0000000000000000e+00  -2.5659433833695594e-02 1.0173285573855975e+00 0.0000000000000000e+00  -2.5981613865373170e-02 1.0168967529867396e+00 0.0000000000000000e+00  -2.6321435117193582e-02 1.0164223571777022e+00 0.0000000000000000e+00  -2.6615842620149863e-02 1.0159942809799118e+00 0.0000000000000000e+00  -2.6937743963902121e-02 1.0155063889911593e+00 0.0000000000000000e+00  -2.7220949861312682e-02 1.0150584042683863e+00 0.0000000000000000e+00  -2.7509844961742101e-02 1.0145815289087488e+00 0.0000000000000000e+00  -2.7792458521048370e-02 1.0140935607157600e+00 0.0000000000000000e+00  -2.8045947910933934e-02 1.0136358712888913e+00 0.0000000000000000e+00  -2.8318050312984604e-02 1.0131210815289116e+00 0.0000000000000000e+00  -2.8550156292273740e-02 1.0126604809283717e+00 0.0000000000000000e+00  -2.8797957269513012e-02 1.0121441119459624e+00 0.0000000000000000e+00  -2.9020962217685260e-02 1.0116548376340533e+00 0.0000000000000000e+00  -2.9234777935542394e-02 1.0111607929353359e+00 0.0000000000000000e+00  -2.9450813487369214e-02 1.0106331683189664e+00 0.0000000000000000e+00  -2.9636032056875421e-02 1.0101545227086746e+00 0.0000000000000000e+00  -2.9834027166437346e-02 1.0096115008997912e+00 0.0000000000000000e+00  -3.0001662785932241e-02 1.0091220135787973e+00 0.0000000000000000e+00  -3.0172274702164138e-02 1.0085904946912116e+00 0.0000000000000000e+00  -3.0329461993300975e-02 1.0080650242032083e+00 0.0000000000000000e+00  -3.0469453962445457e-02 1.0075618599121328e+00 0.0000000000000000e+00  -3.0612202212850517e-02 1.0070064967778980e+00 0.0000000000000000e+00  -3.0729225383653698e-02 1.0065112812472186e+00 0.0000000000000000e+00  -3.0849677886720168e-02 1.0059531298529201e+00 0.0000000000000000e+00  -3.0950148301589701e-02 1.0054383733616077e+00 0.0000000000000000e+00  -3.1043690089011748e-02 1.0049046135524968e+00 0.0000000000000000e+00  -3.1129234325861083e-02 1.0043520662341543e+00 0.0000000000000000e+00  -3.1197756303831106e-02 1.0038447394462366e+00 0.0000000000000000e+00  -3.1263416673860490e-02 1.0032745429103760e+00 0.0000000000000000e+00  -3.1311838995683662e-02 1.0027668476021645e+00 0.0000000000000000e+00  -3.1354334251574009e-02 1.0022070642629950e+00 0.0000000000000000e+00  -3.1384366816153697e-02 1.0016712036094728e+00 0.0000000000000000e+00  -3.1403764900252609e-02 1.0011449836468318e+00 0.0000000000000000e+00  -3.1413514176048124e-02 1.0005778905507712e+00 0.0000000000000000e+00  -3.1412449041168536e-02 1.0000707724182676e+00 0.0000000000000000e+00  -3.1400188423599047e-02 9.9949909324810204e-01 0.0000000000000000e+00  -3.1379053008621399e-02 9.9898296682986920e-01 0.0000000000000000e+00  -3.1346146302708766e-02 9.9843489464447099e-01 0.0000000000000000e+00  -3.1302377254190161e-02 9.9788607429148601e-01 0.0000000000000000e+00  -3.1251624262300347e-02 9.9737284156894979e-01 0.0000000000000000e+00  -3.1184296339570511e-02 9.9680443445201472e-01 0.0000000000000000e+00  -3.1114943320229901e-02 9.9630157419002163e-01 0.0000000000000000e+00  -3.1026849619284640e-02 9.9574167407317116e-01 0.0000000000000000e+00  -3.0934647196946774e-02 9.9522137366203467e-01 0.0000000000000000e+00  -3.0831311389467365e-02 9.9469576481741850e-01 0.0000000000000000e+00  -3.0712063427695720e-02 9.9414553399402128e-01 0.0000000000000000e+00  -3.0594678161204120e-02 9.9364916812195603e-01 0.0000000000000000e+00  -3.0451882726180560e-02 9.9309265850074580e-01 0.0000000000000000e+00  -3.0314924300767050e-02 9.9259805034881854e-01 0.0000000000000000e+00  -3.0155860662617887e-02 9.9206260156779746e-01 0.0000000000000000e+00  -2.9990999059677802e-02 9.9154413902437022e-01 0.0000000000000000e+00  -2.9823081790465642e-02 9.9104796838863296e-01 0.0000000000000000e+00  -2.9629448879449360e-02 9.9050952599308439e-01 0.0000000000000000e+00  -2.9448236647671374e-02 9.9003358666198482e-01 0.0000000000000000e+00  -2.9234328203003264e-02 9.8950166221388791e-01 0.0000000000000000e+00  -2.9029854932761771e-02 9.8901950322769705e-01 0.0000000000000000e+00  -2.8807085373625051e-02 9.8851976