<?xml version="1.0"?>
<VTKFile type="UnstructuredGrid"  version="0.1"  >
<UnstructuredGrid>
<Piece  NumberOfPoints="4276" NumberOfCells="6769">
<Points>
<DataArray  type="Float64"  NumberOfComponents="3"  format="ascii">0 0.01 0  10 0.01 0  0 1.01 0  10 1.01 0  0.007129524987038337 0.009997491741717768 0  0.01258064459049757 0.00999219056738478 0  0.01872173241756402 0.009982708334120727 0  0.02429919625640796 0.009970876572043954 0  0.03017238705920286 0.009955108531615313 0  0.03612352734296466 0.0099356743715591 0  0.04164979236492252 0.009914517792428084 0  0.04780928449023854 0.009887415768096998 0  0.05327287671237849 0.009860276931383746 0  0.0593436395885565 0.009826715421083503 0  0.06505608699933001 0.009791870631895848 0  0.07077243060783153 0.009753845329312128 0  0.07684085351634186 0.009710036052663748 0  0.08230528612367993 0.009667566921662384 0  0.08846525752759338 0.009616276826848907 0  0.09398926586603956 0.0095672187064786 0  0.09994377871281757 0.009511110804477986 0  0.10581288515308 0.009452550633355501 0  0.1113930001121819 0.009393893683773193 0  0.1175326299024069 0.009326020378011352 0  0.122983161250664 0.009262856809916281 0  0.1290978349347763 0.009188765415777931 0  0.1347300222736412 0.00911751981665075 0  0.1405327472005438 0.009041131768776852 0  0.1465421455697866 0.008958856277281909 0  0.1520341809431761 0.008880870879718691 0  0.1581991754706344 0.00879018143976357 0  0.1636834803794234 0.008706732874359017 0  0.1697073563005918 0.008612096527554045 0  0.1754901396361989 0.008518345936558386 0  0.1811391035120075 0.008424050210098115 0  0.1872444279222087 0.00831915423323064 0  0.1926961446341008 0.008222899998379215 0  0.198841090009393 0.008111516418624823 0  0.2044064770158165 0.008008028244452866 0  0.2102948627703611 0.007895869216798803 0  0.2162299794791283 0.007780085801116003 0  0.2217647046821167 0.007669675498109103 0  0.2279204403470532 0.007544154739747676 0  0.2333791472114919 0.007430485124751003 0  0.2394590817234977 0.0073013084386626 0  0.245152498789355 0.007177928079207972 0  0.2508861115607116 0.007051356111670669 0  0.2569419868439766 0.006915186417023598 0  0.2624099649457279 0.006790084113692359 0  0.2685711825796066 0.006646722567663751 0  0.274083748205357 0.006516341894728842 0  0.2800541704182985 0.00637292855786236 0  0.2859022845836161 0.006230279166502627 0  0.291495955429921 0.006091868246150131 0  0.2976275706217687 0.005937986548763313 0  0.3030757324287757 0.005799406374294222 0  0.3091980118239236 0.005641654227187252 0  0.3148109405089491 0.005495191514879527 0  0.3206341933715942 0.005341435282378838 0  0.3266248575896781 0.005181393525330103 0  0.3321252080346692 0.005032833254881577 0  0.3382880718234609 0.004864596209960478 0  0.3437628463580178 0.004713611578807419 0  0.3498021006600692 0.004545443593512952 0  0.3555594631656461 0.004383601001460968 0  0.3612291099056053 0.004222822711549606 0  0.3673210805066339 0.004048576418709386 0  0.3727746135437823 0.003891330909934085 0  0.3789246700786391 0.003712634483246944 0  0.3844721023230384 0.00355025746928806 0  0.3903845048135511 0.003376011435332509 0  0.3962935688476314 0.003200699755406988 0  0.4018430601204535 0.00303505085978487 0  0.4079921977692303 0.002850427660455144 0  0.4134449905916002 0.002685819499171436 0  0.4195385366679084 0.002500937932218923 0  0.425204482428441 0.002328206591247292 0  0.4309651825948974 0.00215183074136113 0  0.4370014133195289 0.001966263547608745 0  0.4424769325836848 0.00179732019881714 0  0.4486395183564056 0.001606544730410899 0  0.4541373275735043 0.001435838569361521 0  0.4601308451156257 0.001249254088784412 0  0.4659488863550298 0.001067707976620331 0  0.471564807260988 0.0008921302908496037 0  0.4776843759254726 0.0007004920228137959 0  0.4831317484445766 0.0005296836585198918 0  0.4892643513384632 0.0003372062279158936 0  0.4948528283485032 0.000161696161435303 0  0.5007056813361916 -2.216943068070812e-05 0  0.5066699093509902 -0.000209526046556915 0  0.5121845298566023 -0.0003826949545447442 0  0.5183439831944545 -0.0005759742926309219 0  0.5238088617282698 -0.0007472800272428554 0  0.5298681543527348 -0.0009369594486414562 0  0.5355929349139432 -0.001115856450691032 0  0.5412927239341832 -0.001293613669039852 0  0.5473668732672543 -0.001482588207084091 0  0.5528259073001393 -0.001651967505962102 0  0.5589819336317072 -0.001842386787779294 0  0.5645100189486582 -0.002012797049529044 0  0.5704524332663232 -0.002195301346534757 0  0.5763298911552834 -0.002375058665203144 0  0.5819006708717119 -0.002544689651648297 0  0.5880413281562127 -0.002730768313747055 0  0.5934904284812221 -0.002895042191696308 0  0.5995995320960693 -0.003078202338538874 0  0.605236779888003 -0.003246210954182579 0  0.6110299855290301 -0.003417806240976177 0  0.6170432999212266 -0.00359472323302265 0  0.6225307972792151 -0.00375505261922207 0  0.6286944373476531 -0.003933803567825084 0  0.6341794289295242 -0.004091634709336539 0  0.6401977648984302 -0.004263413669385436 0  0.6459846030577213 -0.004427148756161272 0  0.6516277670629291 -0.004585409549508515 0  0.6577342305863492 -0.004755038487876419 0  0.6631843111407589 -0.004904958327357115 0  0.6693271588517591 -0.005072208653571043 0  0.6748942591145469 -0.005222152905474348 0  0.6807781354428797 -0.005378892074409919 0  0.6867158102497221 -0.005535201343768038 0  0.6922478556369909 -0.005679100421160843 0  0.6984036264198542 -0.005837205328254034 0  0.7038624132928571 -0.005975584427524931 0  0.7099402809449575 -0.006127588021236129 0  0.7156361945945205 -0.006268012368771779 0  0.7213667017809595 -0.006407263887957157 0  0.7274241898103784 -0.006552202568912044 0  0.7328913375361901 -0.006680980644346233 0  0.7390522654079078 -0.006823736587757829 0  0.7445663161830813 -0.006949337256267011 0  0.7505345306161221 -0.007082931996795786 0  0.7563856967966242 -0.007211490056377221 0  0.7619775509571868 -0.007332073958440476 0  0.7681106054434813 -0.007461725199742056 0  0.7735594228940573 -0.007574589702563127 0  0.7796809699364847 -0.007698739982391196 0  0.7852974086111042 -0.007810142587226769 0  0.7911178568436495 -0.007923025648348906 0  0.797112403703894 -0.008036515862006795 0  0.8026119630288198 -0.008138129173272899 0  0.8087760180262171 -0.008249131188213875 0  0.814253500572072 -0.008345174877796967 0  0.8202905515677629 -0.008448166667805387 0  0.8260544286221699 -0.008543663134562481 0  0.831720415905675 -0.008634807324656511 0  0.8378167080097026 -0.008729817306667463 0  0.8432709709919499 -0.008812108559864256 0  0.8494209576248264 -0.008901791974276371 0  0.8549745826348545 -0.008979924427376591 0  0.8608814329347291 -0.009060026011188804 0  0.8667998142885592 -0.009137155111096256 0  0.8723460990452367 -0.009206568509458774 0  0.8784989383774584 -0.009280301817794542 0  0.8839552890388401 -0.009342788637451834 0  0.8900456692707091 -0.009409293585850673 0  0.8957233874467343 -0.009468190513990782 0  0.9014754209053449 -0.009524786393944277 0  0.9075213579987256 -0.009580921173179099 0  0.9129954731058688 -0.009628765913494807 0  0.9191593188847452 -0.009679229788646495 0  0.9246655330424429 -0.009721240864333262 0  0.9306503084472221 -0.009763603884533442 0  0.9364847200361547 -0.009801580348484516 0  0.9420914259676206 -0.009834972127394636 0  0.948219177636862 -0.009867976960504428 0  0.9536688877131657 -0.009894257783109666 0  0.9597979104438458 -0.009920349306153329 0  0.9654020314719589 -0.009940987600901847 0  0.9712398170272581 -0.009959209624459757 0  0.9772219132298864 -0.009974407121723252 0  0.9827297975109929 -0.009985285083248089 0  0.9888934840407251 -0.009993913310034224 0  0.9943667421923366 -0.009998434045983932 0  1.000414962337846 -0.009999991502249178 0  1.00616395254491 -0.009998125110441144 0  1.011844857354635 -0.009993077234903055 0  1.017933801412069 -0.009984132829796667 0  1.023390946643176 -0.00997301205183276 0  1.029544679732296 -0.009956955598792184 0  1.035089558108845 -0.009939300412459717 0  1.041010936359372 -0.009917116481575694 0  1.04691554237944 -0.00989157814857561 0  1.052471258615448 -0.009864440751261633 0  1.05862104751389 -0.009830897850136421 0  1.064075481579663 -0.009798076706746352 0  1.070173358231585 -0.009757978136698224 0  1.075837941143087 -0.00971752009646258 0  1.081604377355612 -0.009673173917302162 0  1.087640686528322 -0.009623351755525641 0  1.093119387704205 -0.009575135453199036 0  1.099284093826516 -0.009517491101966447 0  1.104783734376909 -0.009463052176492596 0  1.110779897618174 -0.009400480030121557 0  1.116599992234411 -0.00933655469875222 0  1.122217899723542 -0.009271889359757672 0  1.128339818747432 -0.009198135031144493 0  1.133789446190431 -0.00912961705214143 0  1.139923317158062 -0.009049295973540348 0  1.145515844317945 -0.008973134373133167 0  1.151367773813766 -0.008890475161473248 0  1.157336906671575 -0.008803064948780913 0  1.16285160438384 -0.008719557366803981 0  1.16901331600552 -0.008623157866544266 0  1.174481522907442 -0.00853490108265173 0  1.180539122189597 -0.008434191931863186 0  1.186271617394136 -0.008336073959344166 0  1.191966996821913 -0.008235914041393521 0  1.198046448076202 -0.008126091334838595 0  1.203505695906331 -0.008024945109277802 0  1.209661806077474 -0.007908057515838151 0  1.21519584913737 -0.007800455577732041 0  1.221132109188887 -0.00768241304184519 0  1.227019087412133 -0.007562711583992629 0  1.232585135446325 -0.007447155722966398 0  1.238729389023077 -0.007316953404904543 0  1.244180486899644 -0.007199156086382225 0  1.250286093435722 -0.007064709646262071 0  1.255932842016573 -0.006938052500145445 0  1.261716857103797 -0.006806053534187844 0  1.26773845151126 -0.006666245775332091 0  1.273222687278595 -0.006536836953056475 0  1.279386853652711 -0.00638906998029936 0  1.284876650734994 -0.006255450389977176 0  1.290887326898431 -0.00610702037198264 0  1.296685536664392 -0.00596177282270944 0  1.30231949087952 -0.005818744638503708 0  1.308431215520824 -0.005661527839665159 0  
[...]
<PointData  Vectors="Velocity"> 
<DataArray  type="Float64"  Name="Velocity"  NumberOfComponents="3" format="ascii">-4.3047977876117647e-10 9.7039118677006220e-01 0.0000000000000000e+00  -4.3047977876117647e-10 9.7039118677006220e-01 0.0000000000000000e+00  -4.8129371034553121e-06 -2.3031581852875391e-02 0.0000000000000000e+00  -4.8129371034553121e-06 -2.3031581852875391e-02 0.0000000000000000e+00  6.8276953885989828e-04 9.7039837325231815e-01 0.0000000000000000e+00  1.2046096668824489e-03 9.7041356190830419e-01 0.0000000000000000e+00  1.7921086091791077e-03 9.7044073059926661e-01 0.0000000000000000e+00  2.3251656925883249e-03 9.7047463240148690e-01 0.0000000000000000e+00  2.8857803594731367e-03 9.7051981478409555e-01 0.0000000000000000e+00  3.4529207459267860e-03 9.7057550524534930e-01 0.0000000000000000e+00  3.9785893405515083e-03 9.7063613546796068e-01 0.0000000000000000e+00  4.5631956146899360e-03 9.7071380996484102e-01 0.0000000000000000e+00  5.0804550987642505e-03 9.7079159647957736e-01 0.0000000000000000e+00  5.6535890296270930e-03 9.7088780115256079e-01 0.0000000000000000e+00  6.1911842328819123e-03 9.7098769529608908e-01 0.0000000000000000e+00  6.7273230984034732e-03 9.7109672000228542e-01 0.0000000000000000e+00  7.2943109274511038e-03 9.7122234431343579e-01 0.0000000000000000e+00  7.8027988370735577e-03 9.7134414215808096e-01 0.0000000000000000e+00  8.3734816000668229e-03 9.7149125981449147e-01 0.0000000000000000e+00  8.8828124539985023e-03 9.7163199780242415e-01 0.0000000000000000e+00  9.4290915337906199e-03 9.7179298652033941e-01 0.0000000000000000e+00  9.9645788947518021e-03 9.7196104194899002e-01 0.0000000000000000e+00  1.0470824479954970e-02 9.7212940661012859e-01 0.0000000000000000e+00  1.1024416719493087e-02 9.7232426403603134e-01 0.0000000000000000e+00  1.1512728336795581e-02 9.7250563743836471e-01 0.0000000000000000e+00  1.2056845974016140e-02 9.7271843642968248e-01 0.0000000000000000e+00  1.2554419586097189e-02 9.7292310935524717e-01 0.0000000000000000e+00  1.3063279293639729e-02 9.7314260650313111e-01 0.0000000000000000e+00  1.3586052162394974e-02 9.7337907986402772e-01 0.0000000000000000e+00  1.4059924538342740e-02 9.7360327989857232e-01 0.0000000000000000e+00  1.4587263103348489e-02 9.7386407268273278e-01 0.0000000000000000e+00  1.5052143274094241e-02 9.7410410934295677e-01 0.0000000000000000e+00  1.5558004260303435e-02 9.7437640356946253e-01 0.0000000000000000e+00  1.6038781040123865e-02 9.7464623024913999e-01 0.0000000000000000e+00  1.6503708266964904e-02 9.7491770736814520e-01 0.0000000000000000e+00  1.7000787028942248e-02 9.7521979773375989e-01 0.0000000000000000e+00  1.7439759065407817e-02 9.7549708872238772e-01 0.0000000000000000e+00  1.7928860477088176e-02 9.7581807131676879e-01 0.0000000000000000e+00  1.8366487933674611e-02 9.7611640350238960e-01 0.0000000000000000e+00  1.8823834862798743e-02 9.7643984220489011e-01 0.0000000000000000e+00  1.9278749658214318e-02 9.7677385355542623e-01 0.0000000000000000e+00  1.9697358931530167e-02 9.7709248014484329e-01 0.0000000000000000e+00  2.0156414985112309e-02 9.7745484945745986e-01 0.0000000000000000e+00  2.0557613857826791e-02 9.7778313031540431e-01 0.0000000000000000e+00  2.0997820393925951e-02 9.7815634054796641e-01 0.0000000000000000e+00  2.1403551724056290e-02 9.7851294891752383e-01 0.0000000000000000e+00  2.1805671194333819e-02 9.7887892850810598e-01 0.0000000000000000e+00  2.2223190970059904e-02 9.7927282472483157e-01 0.0000000000000000e+00  2.2593699327051853e-02 9.7963485741815992e-01 0.0000000000000000e+00  2.3003671517737141e-02 9.8004990995156283e-01 0.0000000000000000e+00  2.3363616053854695e-02 9.8042754711798685e-01 0.0000000000000000e+00  2.3746009613529708e-02 9.8084311405945912e-01 0.0000000000000000e+00  2.4112934131396112e-02 9.8125665720195576e-01 0.0000000000000000e+00  2.4456704329693827e-02 9.8165809537224746e-01 0.0000000000000000e+00  2.4825329592055762e-02 9.8210461363925938e-01 0.0000000000000000e+00  2.5145553012315448e-02 9.8250692008838392e-01 0.0000000000000000e+00  2.5497061604596194e-02 9.8296510332066100e-01 0.0000000000000000e+00  2.5811461655925329e-02 9.8339070650556448e-01 0.0000000000000000e+00  2.6129578181887811e-02 9.8383772017312021e-01 0.0000000000000000e+00  2.6448151343772177e-02 9.8430324287943183e-01 0.0000000000000000e+00  2.6732789521266984e-02 9.8473558468478783e-01 0.0000000000000000e+00  2.7042655864207225e-02 9.8522544187250294e-01 0.0000000000000000e+00  2.7309799233708323e-02 9.8566529262510294e-01 0.0000000000000000e+00  2.7595510925534032e-02 9.8615545477327082e-01 0.0000000000000000e+00  2.7859020558044085e-02 9.8662743342591219e-01 0.0000000000000000e+00  2.8109961293220978e-02 9.8709655498593152e-01 0.0000000000000000e+00  2.8370033722025675e-02 9.8760525021369638e-01 0.0000000000000000e+00  2.8594362255230675e-02 9.8806455996033027e-01 0.0000000000000000e+00  2.8837624403888571e-02 9.8858681420929007e-01 0.0000000000000000e+00  2.9048130702389260e-02 9.8906163845129269e-01 0.0000000000000000e+00  2.9263086371320808e-02 9.8957144947677533e-01 0.0000000000000000e+00  2.9468144355402234e-02 9.9008467057185301e-01 0.0000000000000000e+00  2.9651749552975889e-02 9.9056987563563303e-01 0.0000000000000000e+00  2.9844958208096805e-02 9.9111096897532391e-01 0.0000000000000000e+00  3.0007217182221196e-02 9.9159367799089737e-01 0.0000000000000000e+00  3.0178379654643629e-02 9.9213614862075550e-01 0.0000000000000000e+00  3.0327839212456999e-02 9.9264326723773055e-01 0.0000000000000000e+00  3.0470160086756473e-02 9.9316138319980440e-01 0.0000000000000000e+00  3.0608792288537013e-02 9.9370682342579464e-01 0.0000000000000000e+00  3.0725205793724668e-02 9.9420368994328701e-01 0.0000000000000000e+00  3.0845532614288920e-02 9.9476509946396319e-01 0.0000000000000000e+00  3.0943270710601108e-02 9.9526774982576793e-01 0.0000000000000000e+00  3.1039448677782449e-02 9.9581747757966299e-01 0.0000000000000000e+00  3.1122413048288070e-02 9.9635268620164996e-01 0.0000000000000000e+00  3.1192736254350140e-02 9.9687060697026586e-01 0.0000000000000000e+00  3.1258409607516455e-02 9.9743624711238110e-01 0.0000000000000000e+00  3.1307220388029959e-02 9.9794070773454668e-01 0.0000000000000000e+00  3.1351261611052589e-02 9.9850950867447397e-01 0.0000000000000000e+00  3.1381302877180099e-02 9.9902848657962906e-01 0.0000000000000000e+00  3.1402418919167181e-02 9.9957249641487411e-01 0.0000000000000000e+00  3.1413024819527895e-02 1.0001271770489877e+00 0.0000000000000000e+00  3.1413011164692681e-02 1.0006401623819183e+00 0.0000000000000000e+00  3.1401822787257790e-02 1.0012130726805004e+00 0.0000000000000000e+00  3.1382009235662894e-02 1.0017211593281319e+00 0.0000000000000000e+00  3.1349165513786734e-02 1.0022840800897039e+00 0.0000000000000000e+00  3.1307623313101496e-02 1.0028153293340218e+00 0.0000000000000000e+00  3.1256113905254873e-02 1.0033435103258705e+00 0.0000000000000000e+00  3.1190072379564376e-02 1.0039053670271805e+00 0.0000000000000000e+00  3.1120911003662585e-02 1.0044092651604020e+00 0.0000000000000000e+00  3.1031788222996893e-02 1.0049761004222746e+00 0.0000000000000000e+00  3.0941711947100253e-02 1.0054836821359256e+00 0.0000000000000000e+00  3.0834302249243297e-02 1.0060276092604938e+00 0.0000000000000000e+00  3.0717298877179812e-02 1.0065636756741447e+00 0.0000000000000000e+00  3.0596539013403735e-02 1.0070698429394662e+00 0.0000000000000000e+00  3.0452332691295242e-02 1.0076254227868051e+00 0.0000000000000000e+00  3.0314653236925160e-02 1.0081161897208661e+00 0.0000000000000000e+00  3.0149475572165806e-02 1.0086637003049621e+00 0.0000000000000000e+00  2.9986941175287597e-02 1.0091662189366448e+00 0.0000000000000000e+00  2.9809839300887458e-02 1.0096797612695978e+00 0.0000000000000000e+00  2.9615255893155827e-02 1.0102095427613405e+00 0.0000000000000000e+00  2.9428177393792446e-02 1.0106899264525746e+00 0.0000000000000000e+00  2.9207281129275474e-02 1.0112258155320295e+00 0.0000000000000000e+00  2.9001180484099172e-02 1.0116992594193421e+00 0.0000000000000000e+00  2.8764783295593330e-02 1.0122148305970486e+00 0.0000000000000000e+00  2.8527419621874241e-02 1.0127065399001207e+00 0.0000000000000000e+00  2.8286520303752827e-02 1.0131820718310833e+00 0.0000000000000000e+00  2.8015428887932840e-02 1.0136920473958777e+00 0.0000000000000000e+00  2.7764407879407416e-02 1.0141430144145906e+00 0.0000000000000000e+00  2.7471302786146255e-02 1.0146463860819779e+00 0.0000000000000000e+00  2.7196440359457973e-02 1.0150979177120132e+00 0.0000000000000000e+00  2.6896479623919198e-02 1.0155701591683457e+00 0.0000000000000000e+00  2.6584021711171427e-02 1.0160413575131686e+00 0.0000000000000000e+00  2.6284181083663791e-02 1.0164753685066157e+00 0.0000000000000000e+00  2.5940739307777790e-02 1.0169524737343767e+00 0.0000000000000000e+00  2.5627647238978851e-02 1.0173702665460553e+00 0.0000000000000000e+00  2.5269720325061612e-02 1.0178294226033113e+00 0.0000000000000000e+00  2.4925468293150791e-02 1.0182538152831075e+00 0.0000000000000000e+00  2.4570633276634189e-02 1.0186748670423449e+00 0.0000000000000000e+00  2.4186401403077012e-02 1.0191133296307318e+00 0.0000000000000000e+00  2.3831652756517979e-02 1.0195030870562840e+00 0.0000000000000000e+00  2.3422976601348913e-02 1.0199353531080841e+00 0.0000000000000000e+00  2.3049315008695434e-02 1.0203158500184955e+00 0.0000000000000000e+00  2.2636607905566822e-02 1.0207207453055704e+00 0.0000000000000000e+00  2.2223784086638543e-02 1.0211105517280117e+00 0.0000000000000000e+00  2.1821791774650819e-02 1.0214763378486882e+00 0.0000000000000000e+00  2.1372650781887617e-02 1.0218698002861020e+00 0.0000000000000000e+00  2.0966517595224519e-02 1.0222124627130249e+00 0.0000000000000000e+00  2.0502430079197349e-02 1.0225895438623727e+00 0.0000000000000000e+00  2.0069504692275773e-02 1.0229280456388103e+00 0.0000000000000000e+00  1.9613812948803266e-02 1.0232711798239222e+00 0.0000000000000000e+00  1.9137152016756608e-02 1.0236162951689638e+00 0.0000000000000000e+00  1.8693448279652049e-02 1.0239254088220786e+00 0.0000000000000000e+00  1.8189027654883495e-02 1.0242632092497104e+00 0.0000000000000000e+00  1.7734645428945796e-02 1.0245555944925346e+00 0.0000000000000000e+00  1.7227311974488714e-02 1.0248692399835098e+00 0.0000000000000000e+00  1.6736719915713710e-02 1.0251601599532376e+00 0.0000000000000000e+00  1.6248704228063324e-02 1.0254379123592248e+00 0.0000000000000000e+00  1.5717439008765044e-02 1.0257275394642260e+00 0.0000000000000000e+00  1.5236854919936850e-02 1.0259784722400078e+00 0.0000000000000000e+00  1.4689188528830836e-02 1.0262520284300316e+00 0.0000000000000000e+00  1.4189536910265083e-02 1.0264904217506989e+00 0.0000000000000000e+00  1.3652993520177967e-02 1.0267348908029994e+00 0.0000000000000000e+00  1.3110307014314692e-02 1.0269703522925224e+00 0.0000000000000000e+00  1.2597288281875684e-02 1.0271823133644176e+00 0.0000000000000000e+00  1.2023330581092749e-02 1.0274075226359038e+00 0.0000000000000000e+00  1.1510266971528814e-02 1.0275984265840756e+00 0.0000000000000000e+00  1.0933268033406367e-02 1.0278016518907065e+00 0.0000000000000000e+00  1.0391451097083088e-02 1.0279816681940408e+00 0.0000000000000000e+00  9.8388865698823894e-03 1.0281546868611069e+00 0.0000000000000000e+00  9.2543360399206364e-03 1.0283263297541558e+00 0.0000000000000000e+00  8.7219400985186785e-03 1.0284726505952784e+00 0.0000000000000000e+00  8.1191195331778276e-03 1.0286270083187896e+00 0.0000000000000000e+00  7.5778126830409751e-03 1.0287555319369948e+00 0.0000000000000000e+00  6.9866674461303967e-03 1.0288851512592212e+00 0.0000000000000000e+00  6.4077897372441083e-03 1.0290013651085466e+00 0.0000000000000000e+00  5.8492978381873527e-03 1.0291035621475635e+00 0.0000000000000000e+00  5.2366489434864287e-03 1.0292045866762125e+00 0.0000000000000000e+00  4.6900120009293134e-03 1.0292850381407159e+00 0.0000000000000000e+00  4.0734523452921724e-03 1.0293649172061541e+00 0.0000000000000000e+00  3.5082541174024330e-03 1.0294281065581468e+00 0.0000000000000000e+00  2.9182342239548907e-03 1.0294839018013047e+00 0.0000000000000000e+00  2.3125205045002738e-03 1.0295304386577797e+00 0.0000000000000000e+00  1.7540314824919313e-03 1.0295637499692607e+00 0.0000000000000000e+00  1.1283759709692790e-03 1.0295901729658907e+00 0.0000000000000000e+00  5.7241009027199255e-04 1.0296040176047041e+00 0.0000000000000000e+00  -4.2167470765394506e-05 1.0296087872590283e+00 0.0000000000000000e+00  -6.2632683064611371e-04 1.0296030715204358e+00 0.0000000000000000e+00  -1.2033508280888316e-03 1.0295876126014356e+00 0.0000000000000000e+00  -1.8213527390631770e-03 1.0295602213972057e+00 0.0000000000000000e+00  -2.3746186802171792e-03 1.0295261666439435e+00 0.0000000000000000e+00  -2.9975884607767261e-03 1.0294769999266331e+00 0.0000000000000000e+00  -3.5578825608560023e-03 1.0294229406903614e+00 0.0000000000000000e+00  -4.1549193898511947e-03 1.0293550195323586e+00 0.0000000000000000e+00  -4.7487055016014442e-03 1.0292768346398720e+00 0.0000000000000000e+00  -5.3057866012629811e-03 1.0291937621654492e+00 0.0000000000000000e+00  -5.9203790813324537e-03 1.0290910920332563e+00 0.0000000000000000e+00  -6.4634775465098370e-03 1.0289906427362472e+00 0.0000000000000000e+00  -7.0681896331723426e-03 1.0288679367167295e+00 0.0000000000000000e+00  -7.6274137860075199e-03 1.0287441484102164e+00 0.0000000000000000e+00  -8.1939933378355288e-03 1.0286084834481199e+00 0.0000000000000000e+00  -8.7839585736323358e-03 1.0284560915161933e+00 0.0000000000000000e+00  -9.3164626640178105e-03 1.0283086371862467e+00 0.0000000000000000e+00  -9.9120549668152529e-03 1.0281323827772788e+00 0.0000000000000000e+00  -1.0439993585238609e-02 1.0279659616708161e+00 0.0000000000000000e+00  -1.1011742566873470e-02 1.0277747165810116e+00 0.0000000000000000e+00  -1.1562652161386732e-02 1.0275793792264738e+00 0.0000000000000000e+00  -1.2090455236762415e-02 1.0273818251020845e+00 0.0000000000000000e+00  -1.2660963434105065e-02 1.0271565582818272e+00 0.0000000000000000e+00  -1.3164563481171643e-02 1.0269473368283779e+00 0.0000000000000000e+00  -1.3726400022580951e-02 1.0267021387392095e+00 0.0000000000000000e+00  -1.4233855767753574e-02 1.0264697019013727e+00 0.0000000000000000e+00  -1.4759763558918910e-02 1.0262175047340720e+00 0.0000000000000000e+00  -1.5290659812797621e-02 1.0259508915115887e+00 0.0000000000000000e+00  -1.5775993495054565e-02 1.0256962585459406e+00 0.0000000000000000e+00  -1.6312220691742339e-02 1.0254024071761618e+00 0.0000000000000000e+00  -1.6782595345325346e-02 1.0251334631757112e+00 0.0000000000000000e+00  -1.7297436703297159e-02 1.0248266749428914e+00 0.0000000000000000e+00  -1.7778450482717350e-02 1.0245278844027377e+00 0.0000000000000000e+00  -1.8250221298589258e-02 1.0242229804093612e+00 0.0000000000000000e+00  -1.8746883549523814e-02 1.0238887833611350e+00 0.0000000000000000e+00  -1.9186633079726862e-02 1.0235811027295967e+00 0.0000000000000000e+00  -1.9675262932160525e-02 1.0232256730523741e+00 0.0000000000000000e+00  -2.0107796603837432e-02 1.0228986063070531e+00 0.0000000000000000e+00  -2.0564551066031271e-02 1.0225399447268206e+00 0.0000000000000000e+00  -2.1009950381231296e-02 1.0221763933424572e+00 0.0000000000000000e+00  -2.1424036983241294e-02 1.0218255766244333e+00 0.0000000000000000e+00  -2.1873011035735457e-02 1.0214304623533761e+00 0.0000000000000000e+00  -2.2264083404979401e-02 1.0210731456691604e+00 0.0000000000000000e+00  -2.2693858952800561e-02 1.0206655058855367e+00 0.0000000000000000e+00  -2.3083442228456444e-02 1.0202816572820013e+00 0.0000000000000000e+00  -2.3474503623796369e-02 1.0198817975955563e+00 0.0000000000000000e+00  -2.3872896983056252e-02 1.0194584819856622e+00 0.0000000000000000e+00  -2.4227870844641421e-02 1.0190668356988506e+00 0.0000000000000000e+00  -2.4617771980580329e-02 1.0186198434688463e+00 0.0000000000000000e+00  -2.4956808814406789e-02 1.0182158422147112e+00 0.0000000000000000e+00  -2.5319030748400258e-02 1.0177672796634578e+00 0.0000000000000000e+00  -2.5659433841982243e-02 1.0173285573863551e+00 0.0000000000000000e+00  -2.5981615235608699e-02 1.0168967529412432e+00 0.0000000000000000e+00  -2.6321440832158219e-02 1.0164223570106303e+00 0.0000000000000000e+00  -2.6615843857780125e-02 1.0159942809387990e+00 0.0000000000000000e+00  -2.6937751243226244e-02 1.0155063887620595e+00 0.0000000000000000e+00  -2.7220951606444495e-02 1.0150584042160051e+00 0.0000000000000000e+00  -2.7509848705293407e-02 1.0145815287958875e+00 0.0000000000000000e+00  -2.7792460312074108e-02 1.0140935606609549e+00 0.0000000000000000e+00  -2.8045951609059906e-02 1.0136358711711162e+00 0.0000000000000000e+00  -2.8318057210338653e-02 1.0131210812849405e+00 0.0000000000000000e+00  -2.8550156892269942e-02 1.0126604809096964e+00 0.0000000000000000e+00  -2.8797957710625221e-02 1.0121441119309320e+00 0.0000000000000000e+00  -2.9020961406259670e-02 1.0116548376617158e+00 0.0000000000000000e+00  -2.9234779579396016e-02 1.0111607928848931e+00 0.0000000000000000e+00  -2.9450814212808658e-02 1.0106331682968510e+00 0.0000000000000000e+00  -2.9636033537041348e-02 1.0101545226608382e+00 0.0000000000000000e+00  -2.9834028343513046e-02 1.0096115008595967e+00 0.0000000000000000e+00  -3.0001665655502056e-02 1.0091220134652399e+00 0.0000000000000000e+00  -3.0172276606323958e-02 1.0085904946089173e+00 0.0000000000000000e+00  -3.0329462964774508e-02 1.0080650241645093e+00 0.0000000000000000e+00  -3.0469454668590090e-02 1.0075618598992648e+00 0.0000000000000000e+00  -3.0612202923699032e-02 1.0070064967632291e+00 0.0000000000000000e+00  -3.0729225802715022e-02 1.0065112812348043e+00 0.0000000000000000e+00  -3.0849678980102425e-02 1.0059531298207631e+00 0.0000000000000000e+00  -3.0950148396258079e-02 1.0054383733739920e+00 0.0000000000000000e+00  -3.1043690766886085e-02 1.0049046135171045e+00 0.0000000000000000e+00  -3.1129234485485834e-02 1.0043520662115015e+00 0.0000000000000000e+00  -3.1197757370303413e-02 1.0038447394279688e+00 0.0000000000000000e+00  -3.1263417084589601e-02 1.0032745429081888e+00 0.0000000000000000e+00  -3.1311839230253255e-02 1.0027668476019862e+00 0.0000000000000000e+00  -3.1354334543133640e-02 1.0022070642726646e+00 0.0000000000000000e+00  -3.1384366897082190e-02 1.0016712036145312e+00 0.0000000000000000e+00  -3.1403766335644824e-02 1.0011449836213075e+00 0.0000000000000000e+00  -3.1413513619577213e-02 1.0005778905190976e+00 0.0000000000000000e+00  -3.1412448528275037e-02 1.0000707724087512e+00 0.0000000000000000e+00  -3.1400188205500411e-02 9.9949909325130371e-01 0.0000000000000000e+00  -3.1379053384263771e-02 9.9898296681643506e-01 0.0000000000000000e+00  -3.1346145095035437e-02 9.9843489470808677e-01 0.0000000000000000e+00  -3.1302376107193823e-02 9.9788607434000232e-01 0.0000000000000000e+00  -3.1251621503228480e-02 9.9737284168090867e-01 0.0000000000000000e+00  -3.1184294041263140e-02 9.9680443452378997e-01 0.0000000000000000e+00  -3.1114940755785771e-02 9.9630157427018129e-01 0.0000000000000000e+00  -3.1026847936866615e-02 9.9574167413225911e-01 0.0000000000000000e+00  -3.0934646323801319e-02 9.9522137369463182e-01 0.0000000000000000e+00  -3.0831308952025120e-02 9.9469576491641876e-01 0.0000000000000000e+00  -3.0712061996007324e-02 9.9414553404569228e-01 0.0000000000000000e+00  -3.0594674646845545e-02 9.9364916826823602e-01 0.0000000000000000e+00  -3.0451879209570897e-02 9.9309265857521256e-01 0.0000000000000000e+00  -3.0314921119649233e-02 9.9259805042561189e-01 0.0000000000000000e+00  -3.0155860006957174e-02 9.9206260158628479e-01 0.0000000000000000e+00  -2.9990998745801901e-02 9.9154413901773120e-01 0.0000000000000000e+00  -2.9823081138546877e-02 9.9104796840100773e-01 0.0000000000000000e+00  -2.9629448963310500e-02 9.9050952597797759e-01 0.0000000000000000e+00  -2.9448236816221999e-02 9.9003358665293217e-01 0.0000000000000000e+00  -2.9234328728432221e-02 9.8950166219659430e-01 0.0000000000000000e+00  -2.9029854743499617e-02 9.8901950323736232e-01 0.0000000000000000e+00  -2.8807085758665325e-02 9.88519